REMARK  1 active torsions:
REMARK  status: ('A' for Active; 'I' for Inactive)
REMARK    1  A    between atoms: C1_1  and  O1_2 
ROOT
HETATM    1  C1  UNL     1       0.100  -2.312   1.889  1.00  0.00     0.298 C 
HETATM    2  C2  UNL     1       0.521  -1.002   2.594  1.00  0.00     0.168 C 
HETATM    3  C3  UNL     1       0.596   0.205   1.596  1.00  0.00     0.044 C 
HETATM    4  C4  UNL     1       1.053   1.526   2.356  1.00  0.00     0.050 C 
HETATM    5  C5  UNL     1       1.239   1.221   3.870  1.00  0.00     0.116 C 
HETATM    6  C6  UNL     1      -0.074   0.622   4.333  1.00  0.00     0.247 C 
HETATM    7  N1  UNL     1      -0.432  -0.597   3.653  1.00  0.00    -0.337 N 
HETATM    8  O2  UNL     1      -0.821   1.146   5.202  1.00  0.00    -0.271 OA
HETATM    9  N2  UNL     1       2.217   0.152   3.953  1.00  0.00    -0.331 N 
HETATM   10  C7  UNL     1       3.462   0.518   4.588  1.00  0.00     0.127 C 
HETATM   11  C8  UNL     1       3.317   2.015   4.878  1.00  0.00     0.023 C 
HETATM   12  C9  UNL     1       1.826   2.362   4.706  1.00  0.00     0.043 C 
HETATM   13  C10 UNL     1       1.870  -1.071   3.292  1.00  0.00     0.255 C 
HETATM   14  O3  UNL     1       2.599  -2.099   3.342  1.00  0.00    -0.270 OA
HETATM   15  C11 UNL     1       1.375  -0.154   0.282  1.00  0.00     0.017 C 
HETATM   16  C12 UNL     1       2.907  -0.308   0.521  1.00  0.00     0.021 C 
HETATM   17  C13 UNL     1       1.168   0.988  -0.748  1.00  0.00     0.021 C 
HETATM   18  C14 UNL     1       0.782  -1.512  -0.269  1.00  0.00     0.211 A 
HETATM   19  O4  UNL     1       0.840  -2.561   0.698  1.00  0.00    -0.320 OA
HETATM   20  N3  UNL     1      -0.591  -1.336  -0.795  1.00  0.00    -0.350 N 
HETATM   21  C15 UNL     1      -0.619  -1.661  -2.181  1.00  0.00     0.058 A 
HETATM   22  C16 UNL     1       0.610  -2.056  -2.628  1.00  0.00     0.042 A 
HETATM   23  C17 UNL     1       0.833  -2.429  -3.953  1.00  0.00     0.020 A 
HETATM   24  C18 UNL     1      -0.249  -2.378  -4.846  1.00  0.00     0.039 A 
HETATM   25  C19 UNL     1      -1.518  -1.955  -4.399  1.00  0.00     0.082 A 
HETATM   26  O5  UNL     1      -2.596  -1.907  -5.288  1.00  0.00    -0.336 OA
HETATM   27  C20 UNL     1      -1.716  -1.597  -3.052  1.00  0.00     0.025 A 
HETATM   28  C21 UNL     1      -3.072  -1.227  -2.612  1.00  0.00     0.015 C 
HETATM   29  C22 UNL     1      -4.064  -1.109  -3.499  1.00  0.00     0.012 C 
HETATM   30  C23 UNL     1      -3.821  -1.218  -4.995  1.00  0.00     0.078 C 
HETATM   31  C24 UNL     1      -3.741   0.194  -5.590  1.00  0.00     0.051 C 
HETATM   32  C25 UNL     1      -4.974  -1.992  -5.643  1.00  0.00     0.051 C 
HETATM   33  C26 UNL     1       1.517  -2.007  -1.502  1.00  0.00     0.217 A 
HETATM   34  O6  UNL     1       2.706  -2.423  -1.531  1.00  0.00    -0.287 OA
HETATM   35  H6  UNL     1      -1.298  -1.130   3.892  1.00  0.00     0.164 HD
HETATM   36  H19 UNL     1      -1.383  -0.879  -0.295  1.00  0.00     0.163 HD
ENDROOT
BRANCH   1  37
HETATM   37  O1  UNL     1      -1.282  -2.332   1.640  1.00  0.00    -0.368 OA
HETATM   38  H2  UNL     1      -1.493  -3.238   1.292  1.00  0.00     0.212 HD
ENDBRANCH   1  37
TORSDOF 1
