MODEL 1
REMARK VINA RESULT:     -10.9      0.000      0.000
REMARK  1 active torsions:
REMARK  status: ('A' for Active; 'I' for Inactive)
REMARK    1  A    between atoms: C1_1  and  O1_2 
ROOT
HETATM    1  C1  UNL     1      19.404   5.178  -2.171  1.00  0.00     0.298 C 
HETATM    2  C2  UNL     1      19.568   5.998  -3.471  1.00  0.00     0.168 C 
HETATM    3  C3  UNL     1      18.317   6.898  -3.760  1.00  0.00     0.044 C 
HETATM    4  C4  UNL     1      18.516   7.707  -5.116  1.00  0.00     0.050 C 
HETATM    5  C5  UNL     1      19.917   7.390  -5.713  1.00  0.00     0.116 C 
HETATM    6  C6  UNL     1      20.913   7.701  -4.614  1.00  0.00     0.247 C 
HETATM    7  N1  UNL     1      20.728   6.917  -3.419  1.00  0.00    -0.337 N 
HETATM    8  O2  UNL     1      21.803   8.589  -4.700  1.00  0.00    -0.271 OA
HETATM    9  N2  UNL     1      19.964   5.951  -5.900  1.00  0.00    -0.331 N 
HETATM   10  C7  UNL     1      20.051   5.521  -7.276  1.00  0.00     0.127 C 
HETATM   11  C8  UNL     1      19.967   6.818  -8.087  1.00  0.00     0.023 C 
HETATM   12  C9  UNL     1      20.192   7.979  -7.100  1.00  0.00     0.043 C 
HETATM   13  C10 UNL     1      19.794   5.158  -4.718  1.00  0.00     0.255 C 
HETATM   14  O3  UNL     1      19.880   3.900  -4.729  1.00  0.00    -0.270 OA
HETATM   15  C11 UNL     1      16.967   6.113  -3.604  1.00  0.00     0.017 C 
HETATM   16  C12 UNL     1      16.740   5.084  -4.752  1.00  0.00     0.021 C 
HETATM   17  C13 UNL     1      15.793   7.127  -3.636  1.00  0.00     0.021 C 
HETATM   18  C14 UNL     1      17.011   5.360  -2.214  1.00  0.00     0.211 A 
HETATM   19  O4  UNL     1      18.150   4.507  -2.095  1.00  0.00    -0.320 OA
HETATM   20  N3  UNL     1      16.921   6.305  -1.077  1.00  0.00    -0.350 N 
HETATM   21  C15 UNL     1      15.753   6.025  -0.313  1.00  0.00     0.058 A 
HETATM   22  C16 UNL     1      15.060   4.965  -0.826  1.00  0.00     0.042 A 
HETATM   23  C17 UNL     1      13.880   4.499  -0.246  1.00  0.00     0.020 A 
HETATM   24  C18 UNL     1      13.396   5.161   0.893  1.00  0.00     0.039 A 
HETATM   25  C19 UNL     1      14.094   6.267   1.421  1.00  0.00     0.082 A 
HETATM   26  O5  UNL     1      13.614   6.924   2.558  1.00  0.00    -0.336 OA
HETATM   27  C20 UNL     1      15.290   6.706   0.822  1.00  0.00     0.025 A 
HETATM   28  C21 UNL     1      16.023   7.821   1.445  1.00  0.00     0.015 C 
HETATM   29  C22 UNL     1      15.499   8.484   2.480  1.00  0.00     0.012 C 
HETATM   30  C23 UNL     1      14.087   8.213   2.975  1.00  0.00     0.078 C 
HETATM   31  C24 UNL     1      13.148   9.285   2.407  1.00  0.00     0.051 C 
HETATM   32  C25 UNL     1      14.067   8.261   4.506  1.00  0.00     0.051 C 
HETATM   33  C26 UNL     1      15.785   4.494  -1.985  1.00  0.00     0.217 A 
HETATM   34  O6  UNL     1      15.491   3.452  -2.630  1.00  0.00    -0.287 OA
HETATM   35  H6  UNL     1      21.361   7.010  -2.593  1.00  0.00     0.164 HD
HETATM   36  H19 UNL     1      17.507   7.156  -0.942  1.00  0.00     0.163 HD
ENDROOT
BRANCH   1  37
HETATM   37  O1  UNL     1      19.621   5.977  -1.037  1.00  0.00    -0.368 OA
HETATM   38  H2  UNL     1      19.212   5.496  -0.270  1.00  0.00     0.212 HD
ENDBRANCH   1  37
TORSDOF 1
ENDMDL
MODEL 2
REMARK VINA RESULT:     -10.7      1.967      2.892
REMARK  1 active torsions:
REMARK  status: ('A' for Active; 'I' for Inactive)
REMARK    1  A    between atoms: C1_1  and  O1_2 
ROOT
HETATM    1  C1  UNL     1      20.950   6.663  -3.153  1.00  0.00     0.298 C 
HETATM    2  C2  UNL     1      20.970   7.952  -4.007  1.00  0.00     0.168 C 
HETATM    3  C3  UNL     1      19.529   8.519  -4.249  1.00  0.00     0.044 C 
HETATM    4  C4  UNL     1      19.592   9.831  -5.148  1.00  0.00     0.050 C 
HETATM    5  C5  UNL     1      21.075  10.172  -5.471  1.00  0.00     0.116 C 
HETATM    6  C6  UNL     1      21.777  10.265  -4.131  1.00  0.00     0.247 C 
HETATM    7  N1  UNL     1      21.736   9.045  -3.365  1.00  0.00    -0.337 N 
HETATM    8  O2  UNL     1      22.317  11.313  -3.688  1.00  0.00    -0.271 OA
HETATM    9  N2  UNL     1      21.627   9.005  -6.132  1.00  0.00    -0.331 N 
HETATM   10  C7  UNL     1      22.009   9.212  -7.510  1.00  0.00     0.127 C 
HETATM   11  C8  UNL     1      21.581  10.651  -7.811  1.00  0.00     0.023 C 
HETATM   12  C9  UNL     1      21.287  11.324  -6.457  1.00  0.00     0.043 C 
HETATM   13  C10 UNL     1      21.606   7.786  -5.378  1.00  0.00     0.255 C 
HETATM   14  O3  UNL     1      22.113   6.714  -5.808  1.00  0.00    -0.270 OA
HETATM   15  C11 UNL     1      18.517   7.408  -4.699  1.00  0.00     0.017 C 
HETATM   16  C12 UNL     1      18.781   6.915  -6.153  1.00  0.00     0.021 C 
HETATM   17  C13 UNL     1      17.080   7.992  -4.650  1.00  0.00     0.021 C 
HETATM   18  C14 UNL     1      18.658   6.197  -3.692  1.00  0.00     0.211 A 
HETATM   19  O4  UNL     1      19.997   5.710  -3.614  1.00  0.00    -0.320 OA
HETATM   20  N3  UNL     1      18.126   6.536  -2.352  1.00  0.00    -0.350 N 
HETATM   21  C15 UNL     1      17.044   5.667  -2.031  1.00  0.00     0.058 A 
HETATM   22  C16 UNL     1      16.814   4.764  -3.030  1.00  0.00     0.042 A 
HETATM   23  C17 UNL     1      15.805   3.805  -2.946  1.00  0.00     0.020 A 
HETATM   24  C18 UNL     1      15.001   3.790  -1.795  1.00  0.00     0.039 A 
HETATM   25  C19 UNL     1      15.220   4.728  -0.765  1.00  0.00     0.082 A 
HETATM   26  O5  UNL     1      14.421   4.711   0.382  1.00  0.00    -0.336 OA
HETATM   27  C20 UNL     1      16.254   5.677  -0.873  1.00  0.00     0.025 A 
HETATM   28  C21 UNL     1      16.492   6.594   0.255  1.00  0.00     0.015 C 
HETATM   29  C22 UNL     1      15.661   6.611   1.301  1.00  0.00     0.012 C 
HETATM   30  C23 UNL     1      14.380   5.795   1.323  1.00  0.00     0.078 C 
HETATM   31  C24 UNL     1      13.202   6.710   0.962  1.00  0.00     0.051 C 
HETATM   32  C25 UNL     1      14.173   5.208   2.723  1.00  0.00     0.051 C 
HETATM   33  C26 UNL     1      17.781   5.019  -4.076  1.00  0.00     0.217 A 
HETATM   34  O6  UNL     1      17.932   4.292  -5.094  1.00  0.00    -0.287 OA
HETATM   35  H6  UNL     1      22.204   8.960  -2.435  1.00  0.00     0.164 HD
HETATM   36  H19 UNL     1      18.370   7.381  -1.793  1.00  0.00     0.163 HD
ENDROOT
BRANCH   1  37
HETATM   37  O1  UNL     1      20.755   6.958  -1.794  1.00  0.00    -0.368 OA
HETATM   38  H2  UNL     1      19.960   6.438  -1.504  1.00  0.00     0.212 HD
ENDBRANCH   1  37
TORSDOF 1
ENDMDL
MODEL 3
REMARK VINA RESULT:     -10.6      5.909     10.306
REMARK  1 active torsions:
REMARK  status: ('A' for Active; 'I' for Inactive)
REMARK    1  A    between atoms: C1_1  and  O1_2 
ROOT
HETATM    1  C1  UNL     1      18.037   9.740  -6.722  1.00  0.00     0.298 C 
HETATM    2  C2  UNL     1      19.281   9.712  -5.804  1.00  0.00     0.168 C 
HETATM    3  C3  UNL     1      20.400  10.691  -6.301  1.00  0.00     0.044 C 
HETATM    4  C4  UNL     1      21.668  10.616  -5.343  1.00  0.00     0.050 C 
HETATM    5  C5  UNL     1      21.386   9.625  -4.177  1.00  0.00     0.116 C 
HETATM    6  C6  UNL     1      20.104  10.108  -3.528  1.00  0.00     0.247 C 
HETATM    7  N1  UNL     1      18.969  10.120  -4.415  1.00  0.00    -0.337 N 
HETATM    8  O2  UNL     1      20.025  10.507  -2.336  1.00  0.00    -0.271 OA
HETATM    9  N2  UNL     1      21.065   8.351  -4.795  1.00  0.00    -0.331 N 
HETATM   10  C7  UNL     1      22.016   7.295  -4.534  1.00  0.00     0.127 C 
HETATM   11  C8  UNL     1      23.127   7.973  -3.727  1.00  0.00     0.023 C 
HETATM   12  C9  UNL     1      22.574   9.332  -3.257  1.00  0.00     0.043 C 
HETATM   13  C10 UNL     1      19.930   8.344  -5.670  1.00  0.00     0.255 C 
HETATM   14  O3  UNL     1      19.504   7.292  -6.218  1.00  0.00    -0.270 OA
HETATM   15  C11 UNL     1      20.674  10.554  -7.840  1.00  0.00     0.017 C 
HETATM   16  C12 UNL     1      21.401   9.224  -8.199  1.00  0.00     0.021 C 
HETATM   17  C13 UNL     1      21.582  11.729  -8.291  1.00  0.00     0.021 C 
HETATM   18  C14 UNL     1      19.278  10.616  -8.580  1.00  0.00     0.211 A 
HETATM   19  O4  UNL     1      18.367   9.627  -8.103  1.00  0.00    -0.320 OA
HETATM   20  N3  UNL     1      18.686  11.972  -8.519  1.00  0.00    -0.350 N 
HETATM   21  C15 UNL     1      18.533  12.488  -9.838  1.00  0.00     0.058 A 
HETATM   22  C16 UNL     1      18.954  11.592 -10.779  1.00  0.00     0.042 A 
HETATM   23  C17 UNL     1      18.900  11.870 -12.144  1.00  0.00     0.020 A 
HETATM   24  C18 UNL     1      18.406  13.121 -12.546  1.00  0.00     0.039 A 
HETATM   25  C19 UNL     1      17.985  14.060 -11.582  1.00  0.00     0.082 A 
HETATM   26  O5  UNL     1      17.490  15.305 -11.983  1.00  0.00    -0.336 OA
HETATM   27  C20 UNL     1      18.039  13.747 -10.211  1.00  0.00     0.025 A 
HETATM   28  C21 UNL     1      17.526  14.729  -9.241  1.00  0.00     0.015 C 
HETATM   29  C22 UNL     1      17.137  15.942  -9.646  1.00  0.00     0.012 C 
HETATM   30  C23 UNL     1      17.325  16.408 -11.080  1.00  0.00     0.078 C 
HETATM   31  C24 UNL     1      18.577  17.292 -11.155  1.00  0.00     0.051 C 
HETATM   32  C25 UNL     1      16.095  17.209 -11.520  1.00  0.00     0.051 C 
HETATM   33  C26 UNL     1      19.408  10.410 -10.079  1.00  0.00     0.217 A 
HETATM   34  O6  UNL     1      19.751   9.339 -10.646  1.00  0.00    -0.287 OA
HETATM   35  H6  UNL     1      18.017  10.405  -4.091  1.00  0.00     0.164 HD
HETATM   36  H19 UNL     1      18.560  12.546  -7.659  1.00  0.00     0.163 HD
ENDROOT
BRANCH   1  37
HETATM   37  O1  UNL     1      17.254  10.881  -6.481  1.00  0.00    -0.368 OA
HETATM   38  H2  UNL     1      17.772  11.451  -5.854  1.00  0.00     0.212 HD
ENDBRANCH   1  37
TORSDOF 1
ENDMDL
MODEL 4
REMARK VINA RESULT:     -10.6      2.441      4.587
REMARK  1 active torsions:
REMARK  status: ('A' for Active; 'I' for Inactive)
REMARK    1  A    between atoms: C1_1  and  O1_2 
ROOT
HETATM    1  C1  UNL     1      19.790   9.798  -4.386  1.00  0.00     0.298 C 
HETATM    2  C2  UNL     1      19.812   9.606  -5.920  1.00  0.00     0.168 C 
HETATM    3  C3  UNL     1      19.213   8.221  -6.347  1.00  0.00     0.044 C 
HETATM    4  C4  UNL     1      19.274   8.053  -7.928  1.00  0.00     0.050 C 
HETATM    5  C5  UNL     1      19.867   9.341  -8.568  1.00  0.00     0.116 C 
HETATM    6  C6  UNL     1      19.008  10.484  -8.065  1.00  0.00     0.247 C 
HETATM    7  N1  UNL     1      19.014  10.631  -6.631  1.00  0.00    -0.337 N 
HETATM    8  O2  UNL     1      18.312  11.224  -8.809  1.00  0.00    -0.271 OA
HETATM    9  N2  UNL     1      21.175   9.530  -7.968  1.00  0.00    -0.331 N 
HETATM   10  C7  UNL     1      22.286   9.403  -8.882  1.00  0.00     0.127 C 
HETATM   11  C8  UNL     1      21.641   9.004 -10.213  1.00  0.00     0.023 C 
HETATM   12  C9  UNL     1      20.130   9.269 -10.076  1.00  0.00     0.043 C 
HETATM   13  C10 UNL     1      21.196   9.690  -6.544  1.00  0.00     0.255 C 
HETATM   14  O3  UNL     1      22.257   9.927  -5.904  1.00  0.00    -0.270 OA
HETATM   15  C11 UNL     1      19.785   7.034  -5.494  1.00  0.00     0.017 C 
HETATM   16  C12 UNL     1      21.273   6.720  -5.832  1.00  0.00     0.021 C 
HETATM   17  C13 UNL     1      18.951   5.760  -5.790  1.00  0.00     0.021 C 
HETATM   18  C14 UNL     1      19.658   7.438  -3.970  1.00  0.00     0.211 A 
HETATM   19  O4  UNL     1      20.309   8.675  -3.681  1.00  0.00    -0.320 OA
HETATM   20  N3  UNL     1      18.247   7.452  -3.523  1.00  0.00    -0.350 N 
HETATM   21  C15 UNL     1      18.063   6.497  -2.484  1.00  0.00     0.058 A 
HETATM   22  C16 UNL     1      19.231   5.855  -2.181  1.00  0.00     0.042 A 
HETATM   23  C17 UNL     1      19.304   4.876  -1.191  1.00  0.00     0.020 A 
HETATM   24  C18 UNL     1      18.128   4.542  -0.501  1.00  0.00     0.039 A 
HETATM   25  C19 UNL     1      16.913   5.186  -0.818  1.00  0.00     0.082 A 
HETATM   26  O5  UNL     1      15.743   4.856  -0.129  1.00  0.00    -0.336 OA
HETATM   27  C20 UNL     1      16.873   6.180  -1.814  1.00  0.00     0.025 A 
HETATM   28  C21 UNL     1      15.599   6.876  -2.065  1.00  0.00     0.015 C 
HETATM   29  C22 UNL     1      14.479   6.483  -1.452  1.00  0.00     0.012 C 
HETATM   30  C23 UNL     1      14.435   5.237  -0.582  1.00  0.00     0.078 C 
HETATM   31  C24 UNL     1      13.845   4.081  -1.399  1.00  0.00     0.051 C 
HETATM   32  C25 UNL     1      13.560   5.506   0.648  1.00  0.00     0.051 C 
HETATM   33  C26 UNL     1      20.259   6.396  -3.043  1.00  0.00     0.217 A 
HETATM   34  O6  UNL     1      21.483   6.115  -2.949  1.00  0.00    -0.287 OA
HETATM   35  H6  UNL     1      18.487  11.395  -6.152  1.00  0.00     0.164 HD
HETATM   36  H19 UNL     1      17.460   7.943  -3.999  1.00  0.00     0.163 HD
ENDROOT
BRANCH   1  37
HETATM   37  O1  UNL     1      18.502  10.129  -3.935  1.00  0.00    -0.368 OA
HETATM   38  H2  UNL     1      18.514  10.024  -2.947  1.00  0.00     0.212 HD
ENDBRANCH   1  37
TORSDOF 1
ENDMDL
MODEL 5
REMARK VINA RESULT:     -10.1      3.589      5.270
REMARK  1 active torsions:
REMARK  status: ('A' for Active; 'I' for Inactive)
REMARK    1  A    between atoms: C1_1  and  O1_2 
ROOT
HETATM    1  C1  UNL     1      17.360   9.966  -5.731  1.00  0.00     0.298 C 
HETATM    2  C2  UNL     1      16.904   9.583  -7.158  1.00  0.00     0.168 C 
HETATM    3  C3  UNL     1      16.472   8.079  -7.254  1.00  0.00     0.044 C 
HETATM    4  C4  UNL     1      16.032   7.722  -8.740  1.00  0.00     0.050 C 
HETATM    5  C5  UNL     1      16.122   8.993  -9.632  1.00  0.00     0.116 C 
HETATM    6  C6  UNL     1      15.280  10.044  -8.936  1.00  0.00     0.247 C 
HETATM    7  N1  UNL     1      15.736  10.373  -7.610  1.00  0.00    -0.337 N 
HETATM    8  O2  UNL     1      14.247  10.565  -9.436  1.00  0.00    -0.271 OA
HETATM    9  N2  UNL     1      17.494   9.457  -9.543  1.00  0.00    -0.331 N 
HETATM   10  C7  UNL     1      18.238   9.388 -10.780  1.00  0.00     0.127 C 
HETATM   11  C8  UNL     1      17.274   8.726 -11.769  1.00  0.00     0.023 C 
HETATM   12  C9  UNL     1      15.874   8.769 -11.127  1.00  0.00     0.043 C 
HETATM   13  C10 UNL     1      17.958   9.800  -8.232  1.00  0.00     0.255 C 
HETATM   14  O3  UNL     1      19.106  10.279  -8.023  1.00  0.00    -0.270 OA
HETATM   15  C11 UNL     1      17.510   7.115  -6.578  1.00  0.00     0.017 C 
HETATM   16  C12 UNL     1      18.831   6.994  -7.396  1.00  0.00     0.021 C 
HETATM   17  C13 UNL     1      16.883   5.700  -6.477  1.00  0.00     0.021 C 
HETATM   18  C14 UNL     1      17.826   7.687  -5.138  1.00  0.00     0.211 A 
HETATM   19  O4  UNL     1      18.288   9.037  -5.180  1.00  0.00    -0.320 OA
HETATM   20  N3  UNL     1      16.669   7.539  -4.225  1.00  0.00    -0.350 N 
HETATM   21  C15 UNL     1      17.028   6.708  -3.126  1.00  0.00     0.058 A 
HETATM   22  C16 UNL     1      18.329   6.299  -3.211  1.00  0.00     0.042 A 
HETATM   23  C17 UNL     1      18.913   5.479  -2.247  1.00  0.00     0.020 A 
HETATM   24  C18 UNL     1      18.121   5.058  -1.167  1.00  0.00     0.039 A 
HETATM   25  C19 UNL     1      16.772   5.460  -1.079  1.00  0.00     0.082 A 
HETATM   26  O5  UNL     1      15.984   5.044  -0.002  1.00  0.00    -0.336 OA
HETATM   27  C20 UNL     1      16.213   6.300  -2.061  1.00  0.00     0.025 A 
HETATM   28  C21 UNL     1      14.821   6.752  -1.894  1.00  0.00     0.015 C 
HETATM   29  C22 UNL     1      14.066   6.271  -0.902  1.00  0.00     0.012 C 
HETATM   30  C23 UNL     1      14.552   5.156   0.009  1.00  0.00     0.078 C 
HETATM   31  C24 UNL     1      13.954   3.827  -0.469  1.00  0.00     0.051 C 
HETATM   32  C25 UNL     1      14.104   5.442   1.447  1.00  0.00     0.051 C 
HETATM   33  C26 UNL     1      18.887   6.878  -4.414  1.00  0.00     0.217 A 
HETATM   34  O6  UNL     1      20.103   6.805  -4.737  1.00  0.00    -0.287 OA
HETATM   35  H6  UNL     1      15.264  11.101  -7.027  1.00  0.00     0.164 HD
HETATM   36  H19 UNL     1      15.690   7.837  -4.426  1.00  0.00     0.163 HD
ENDROOT
BRANCH   1  37
HETATM   37  O1  UNL     1      16.259  10.147  -4.878  1.00  0.00    -0.368 OA
HETATM   38  H2  UNL     1      16.619  10.173  -3.953  1.00  0.00     0.212 HD
ENDBRANCH   1  37
TORSDOF 1
ENDMDL
MODEL 6
REMARK VINA RESULT:      -9.6      3.366      9.278
REMARK  1 active torsions:
REMARK  status: ('A' for Active; 'I' for Inactive)
REMARK    1  A    between atoms: C1_1  and  O1_2 
ROOT
HETATM    1  C1  UNL     1      21.774   6.847  -4.649  1.00  0.00     0.298 C 
HETATM    2  C2  UNL     1      20.497   6.220  -4.045  1.00  0.00     0.168 C 
HETATM    3  C3  UNL     1      19.193   6.887  -4.605  1.00  0.00     0.044 C 
HETATM    4  C4  UNL     1      17.904   6.229  -3.944  1.00  0.00     0.050 C 
HETATM    5  C5  UNL     1      18.337   5.089  -2.977  1.00  0.00     0.116 C 
HETATM    6  C6  UNL     1      19.197   4.154  -3.803  1.00  0.00     0.247 C 
HETATM    7  N1  UNL     1      20.378   4.775  -4.348  1.00  0.00    -0.337 N 
HETATM    8  O2  UNL     1      18.905   2.951  -4.039  1.00  0.00    -0.271 OA
HETATM    9  N2  UNL     1      19.226   5.695  -2.004  1.00  0.00    -0.331 N 
HETATM   10  C7  UNL     1      18.726   5.706  -0.649  1.00  0.00     0.127 C 
HETATM   11  C8  UNL     1      17.316   5.117  -0.759  1.00  0.00     0.023 C 
HETATM   12  C9  UNL     1      17.210   4.463  -2.149  1.00  0.00     0.043 C 
HETATM   13  C10 UNL     1      20.411   6.306  -2.530  1.00  0.00     0.255 C 
HETATM   14  O3  UNL     1      21.299   6.810  -1.790  1.00  0.00    -0.270 OA
HETATM   15  C11 UNL     1      19.269   8.454  -4.586  1.00  0.00     0.017 C 
HETATM   16  C12 UNL     1      19.185   9.037  -3.143  1.00  0.00     0.021 C 
HETATM   17  C13 UNL     1      18.073   9.021  -5.396  1.00  0.00     0.021 C 
HETATM   18  C14 UNL     1      20.640   8.875  -5.252  1.00  0.00     0.211 A 
HETATM   19  O4  UNL     1      21.763   8.271  -4.609  1.00  0.00    -0.320 OA
HETATM   20  N3  UNL     1      20.643   8.610  -6.709  1.00  0.00    -0.350 N 
HETATM   21  C15 UNL     1      20.815   9.833  -7.418  1.00  0.00     0.058 A 
HETATM   22  C16 UNL     1      20.945  10.893  -6.565  1.00  0.00     0.042 A 
HETATM   23  C17 UNL     1      21.128  12.197  -7.024  1.00  0.00     0.020 A 
HETATM   24  C18 UNL     1      21.164  12.411  -8.411  1.00  0.00     0.039 A 
HETATM   25  C19 UNL     1      21.014  11.327  -9.300  1.00  0.00     0.082 A 
HETATM   26  O5  UNL     1      21.054  11.541 -10.682  1.00  0.00    -0.336 OA
HETATM   27  C20 UNL     1      20.844  10.019  -8.807  1.00  0.00     0.025 A 
HETATM   28  C21 UNL     1      20.760   8.908  -9.770  1.00  0.00     0.015 C 
HETATM   29  C22 UNL     1      20.717   9.149 -11.083  1.00  0.00     0.012 C 
HETATM   30  C23 UNL     1      20.619  10.561 -11.637  1.00  0.00     0.078 C 
HETATM   31  C24 UNL     1      19.158  10.851 -12.003  1.00  0.00     0.051 C 
HETATM   32  C25 UNL     1      21.503  10.681 -12.883  1.00  0.00     0.051 C 
HETATM   33  C26 UNL     1      20.865  10.376  -5.216  1.00  0.00     0.217 A 
HETATM   34  O6  UNL     1      21.067  11.064  -4.180  1.00  0.00    -0.287 OA
HETATM   35  H6  UNL     1      21.073   4.239  -4.915  1.00  0.00     0.164 HD
HETATM   36  H19 UNL     1      20.385   7.711  -7.168  1.00  0.00     0.163 HD
ENDROOT
BRANCH   1  37
HETATM   37  O1  UNL     1      22.002   6.379  -5.953  1.00  0.00    -0.368 OA
HETATM   38  H2  UNL     1      21.701   7.098  -6.568  1.00  0.00     0.212 HD
ENDBRANCH   1  37
TORSDOF 1
ENDMDL
MODEL 7
REMARK VINA RESULT:      -9.1      4.958      8.277
REMARK  1 active torsions:
REMARK  status: ('A' for Active; 'I' for Inactive)
REMARK    1  A    between atoms: C1_1  and  O1_2 
ROOT
HETATM    1  C1  UNL     1      17.616   9.253  -4.411  1.00  0.00     0.298 C 
HETATM    2  C2  UNL     1      19.155   9.227  -4.262  1.00  0.00     0.168 C 
HETATM    3  C3  UNL     1      19.874   8.982  -5.634  1.00  0.00     0.044 C 
HETATM    4  C4  UNL     1      21.452   8.941  -5.433  1.00  0.00     0.050 C 
HETATM    5  C5  UNL     1      21.797   9.205  -3.939  1.00  0.00     0.116 C 
HETATM    6  C6  UNL     1      21.128  10.519  -3.589  1.00  0.00     0.247 C 
HETATM    7  N1  UNL     1      19.695  10.504  -3.740  1.00  0.00    -0.337 N 
HETATM    8  O2  UNL     1      21.751  11.555  -3.235  1.00  0.00    -0.271 OA
HETATM    9  N2  UNL     1      21.101   8.186  -3.174  1.00  0.00    -0.331 N 
HETATM   10  C7  UNL     1      21.962   7.253  -2.484  1.00  0.00     0.127 C 
HETATM   11  C8  UNL     1      23.378   7.653  -2.911  1.00  0.00     0.023 C 
HETATM   12  C9  UNL     1      23.273   9.044  -3.564  1.00  0.00     0.043 C 
HETATM   13  C10 UNL     1      19.674   8.166  -3.305  1.00  0.00     0.255 C 
HETATM   14  O3  UNL     1      18.944   7.376  -2.646  1.00  0.00    -0.270 OA
HETATM   15  C11 UNL     1      19.238   7.795  -6.438  1.00  0.00     0.017 C 
HETATM   16  C12 UNL     1      19.550   6.408  -5.801  1.00  0.00     0.021 C 
HETATM   17  C13 UNL     1      19.821   7.799  -7.876  1.00  0.00     0.021 C 
HETATM   18  C14 UNL     1      17.674   8.026  -6.473  1.00  0.00     0.211 A 
HETATM   19  O4  UNL     1      17.115   8.153  -5.166  1.00  0.00    -0.320 OA
HETATM   20  N3  UNL     1      17.310   9.175  -7.333  1.00  0.00    -0.350 N 
HETATM   21  C15 UNL     1      16.487   8.730  -8.406  1.00  0.00     0.058 A 
HETATM   22  C16 UNL     1      16.253   7.386  -8.334  1.00  0.00     0.042 A 
HETATM   23  C17 UNL     1      15.469   6.718  -9.274  1.00  0.00     0.020 A 
HETATM   24  C18 UNL     1      14.922   7.464 -10.330  1.00  0.00     0.039 A 
HETATM   25  C19 UNL     1      15.172   8.849 -10.423  1.00  0.00     0.082 A 
HETATM   26  O5  UNL     1      14.624   9.593 -11.474  1.00  0.00    -0.336 OA
HETATM   27  C20 UNL     1      15.956   9.499  -9.452  1.00  0.00     0.025 A 
HETATM   28  C21 UNL     1      16.136  10.958  -9.549  1.00  0.00     0.015 C 
HETATM   29  C22 UNL     1      15.672  11.629 -10.607  1.00  0.00     0.012 C 
HETATM   30  C23 UNL     1      15.064  10.918 -11.806  1.00  0.00     0.078 C 
HETATM   31  C24 UNL     1      16.121  10.819 -12.913  1.00  0.00     0.051 C 
HETATM   32  C25 UNL     1      13.855  11.713 -12.309  1.00  0.00     0.051 C 
HETATM   33  C26 UNL     1      16.936   6.890  -7.160  1.00  0.00     0.217 A 
HETATM   34  O6  UNL     1      16.832   5.712  -6.724  1.00  0.00    -0.287 OA
HETATM   35  H6  UNL     1      19.105  11.334  -3.508  1.00  0.00     0.164 HD
HETATM   36  H19 UNL     1      17.722  10.131  -7.282  1.00  0.00     0.163 HD
ENDROOT
BRANCH   1  37
HETATM   37  O1  UNL     1      17.179  10.475  -4.947  1.00  0.00    -0.368 OA
HETATM   38  H2  UNL     1      17.093  10.339  -5.927  1.00  0.00     0.212 HD
ENDBRANCH   1  37
TORSDOF 1
ENDMDL
MODEL 8
REMARK VINA RESULT:      -9.0     11.565     14.098
REMARK  1 active torsions:
REMARK  status: ('A' for Active; 'I' for Inactive)
REMARK    1  A    between atoms: C1_1  and  O1_2 
ROOT
HETATM    1  C1  UNL     1      20.056  -5.006  -4.934  1.00  0.00     0.298 C 
HETATM    2  C2  UNL     1      20.228  -6.146  -5.964  1.00  0.00     0.168 C 
HETATM    3  C3  UNL     1      21.722  -6.314  -6.410  1.00  0.00     0.044 C 
HETATM    4  C4  UNL     1      21.852  -7.480  -7.485  1.00  0.00     0.050 C 
HETATM    5  C5  UNL     1      20.459  -8.128  -7.726  1.00  0.00     0.116 C 
HETATM    6  C6  UNL     1      19.960  -8.552  -6.359  1.00  0.00     0.247 C 
HETATM    7  N1  UNL     1      19.812  -7.462  -5.427  1.00  0.00    -0.337 N 
HETATM    8  O2  UNL     1      19.729  -9.746  -6.032  1.00  0.00    -0.271 OA
HETATM    9  N2  UNL     1      19.580  -7.055  -8.157  1.00  0.00    -0.331 N 
HETATM   10  C7  UNL     1      19.096  -7.177  -9.512  1.00  0.00     0.127 C 
HETATM   11  C8  UNL     1      19.801  -8.421 -10.060  1.00  0.00     0.023 C 
HETATM   12  C9  UNL     1      20.399  -9.165  -8.851  1.00  0.00     0.043 C 
HETATM   13  C10 UNL     1      19.414  -5.970  -7.236  1.00  0.00     0.255 C 
HETATM   14  O3  UNL     1      18.628  -5.009  -7.456  1.00  0.00    -0.270 OA
HETATM   15  C11 UNL     1      22.394  -4.944  -6.776  1.00  0.00     0.017 C 
HETATM   16  C12 UNL     1      21.853  -4.354  -8.113  1.00  0.00     0.021 C 
HETATM   17  C13 UNL     1      23.921  -5.165  -6.938  1.00  0.00     0.021 C 
HETATM   18  C14 UNL     1      22.102  -3.937  -5.592  1.00  0.00     0.211 A 
HETATM   19  O4  UNL     1      20.705  -3.802  -5.328  1.00  0.00    -0.320 OA
HETATM   20  N3  UNL     1      22.851  -4.300  -4.368  1.00  0.00    -0.350 N 
HETATM   21  C15 UNL     1      23.737  -3.243  -4.017  1.00  0.00     0.058 A 
HETATM   22  C16 UNL     1      23.636  -2.195  -4.887  1.00  0.00     0.042 A 
HETATM   23  C17 UNL     1      24.403  -1.038  -4.748  1.00  0.00     0.020 A 
HETATM   24  C18 UNL     1      25.313  -0.971  -3.681  1.00  0.00     0.039 A 
HETATM   25  C19 UNL     1      25.438  -2.055  -2.787  1.00  0.00     0.082 A 
HETATM   26  O5  UNL     1      26.342  -1.987  -1.723  1.00  0.00    -0.336 OA
HETATM   27  C20 UNL     1      24.641  -3.204  -2.945  1.00  0.00     0.025 A 
HETATM   28  C21 UNL     1      24.754  -4.284  -1.949  1.00  0.00     0.015 C 
HETATM   29  C22 UNL     1      25.684  -4.229  -0.992  1.00  0.00     0.012 C 
HETATM   30  C23 UNL     1      26.740  -3.136  -0.960  1.00  0.00     0.078 C 
HETATM   31  C24 UNL     1      28.043  -3.688  -1.553  1.00  0.00     0.051 C 
HETATM   32  C25 UNL     1      26.972  -2.695   0.488  1.00  0.00     0.051 C 
HETATM   33  C26 UNL     1      22.636  -2.544  -5.872  1.00  0.00     0.217 A 
HETATM   34  O6  UNL     1      22.204  -1.755  -6.754  1.00  0.00    -0.287 OA
HETATM   35  H6  UNL     1      19.452  -7.609  -4.458  1.00  0.00     0.164 HD
HETATM   36  H19 UNL     1      22.874  -5.242  -3.922  1.00  0.00     0.163 HD
ENDROOT
BRANCH   1  37
HETATM   37  O1  UNL     1      20.473  -5.411  -3.655  1.00  0.00    -0.368 OA
HETATM   38  H2  UNL     1      19.707  -5.249  -3.044  1.00  0.00     0.212 HD
ENDBRANCH   1  37
TORSDOF 1
ENDMDL
MODEL 9
REMARK VINA RESULT:      -9.0      2.174      9.051
REMARK  1 active torsions:
REMARK  status: ('A' for Active; 'I' for Inactive)
REMARK    1  A    between atoms: C1_1  and  O1_2 
ROOT
HETATM    1  C1  UNL     1      19.960   5.181  -3.635  1.00  0.00     0.298 C 
HETATM    2  C2  UNL     1      18.522   5.392  -3.109  1.00  0.00     0.168 C 
HETATM    3  C3  UNL     1      17.740   6.462  -3.947  1.00  0.00     0.044 C 
HETATM    4  C4  UNL     1      16.275   6.665  -3.360  1.00  0.00     0.050 C 
HETATM    5  C5  UNL     1      16.054   5.701  -2.159  1.00  0.00     0.116 C 
HETATM    6  C6  UNL     1      16.361   4.313  -2.685  1.00  0.00     0.247 C 
HETATM    7  N1  UNL     1      17.709   4.155  -3.167  1.00  0.00    -0.337 N 
HETATM    8  O2  UNL     1      15.517   3.378  -2.743  1.00  0.00    -0.271 OA
HETATM    9  N2  UNL     1      17.098   6.003  -1.197  1.00  0.00    -0.331 N 
HETATM   10  C7  UNL     1      16.628   6.548   0.056  1.00  0.00     0.127 C 
HETATM   11  C8  UNL     1      15.116   6.700  -0.138  1.00  0.00     0.023 C 
HETATM   12  C9  UNL     1      14.741   5.890  -1.393  1.00  0.00     0.043 C 
HETATM   13  C10 UNL     1      18.445   5.839  -1.657  1.00  0.00     0.255 C 
HETATM   14  O3  UNL     1      19.443   6.004  -0.904  1.00  0.00    -0.270 OA
HETATM   15  C11 UNL     1      18.584   7.762  -4.193  1.00  0.00     0.017 C 
HETATM   16  C12 UNL     1      18.757   8.613  -2.899  1.00  0.00     0.021 C 
HETATM   17  C13 UNL     1      17.853   8.639  -5.244  1.00  0.00     0.021 C 
HETATM   18  C14 UNL     1      20.001   7.316  -4.732  1.00  0.00     0.211 A 
HETATM   19  O4  UNL     1      20.656   6.405  -3.848  1.00  0.00    -0.320 OA
HETATM   20  N3  UNL     1      19.917   6.771  -6.106  1.00  0.00    -0.350 N 
HETATM   21  C15 UNL     1      20.696   7.572  -6.989  1.00  0.00     0.058 A 
HETATM   22  C16 UNL     1      21.308   8.598  -6.326  1.00  0.00     0.042 A 
HETATM   23  C17 UNL     1      22.129   9.518  -6.978  1.00  0.00     0.020 A 
HETATM   24  C18 UNL     1      22.309   9.379  -8.363  1.00  0.00     0.039 A 
HETATM   25  C19 UNL     1      21.667   8.334  -9.060  1.00  0.00     0.082 A 
HETATM   26  O5  UNL     1      21.849   8.194 -10.439  1.00  0.00    -0.336 OA
HETATM   27  C20 UNL     1      20.855   7.412  -8.373  1.00  0.00     0.025 A 
HETATM   28  C21 UNL     1      20.259   6.297  -9.128  1.00  0.00     0.015 C 
HETATM   29  C22 UNL     1      20.381   6.236 -10.457  1.00  0.00     0.012 C 
HETATM   30  C23 UNL     1      21.014   7.361 -11.258  1.00  0.00     0.078 C 
HETATM   31  C24 UNL     1      19.902   8.228 -11.862  1.00  0.00     0.051 C 
HETATM   32  C25 UNL     1      21.878   6.766 -12.375  1.00  0.00     0.051 C 
HETATM   33  C26 UNL     1      20.942   8.491  -4.930  1.00  0.00     0.217 A 
HETATM   34  O6  UNL     1      21.428   9.206  -4.014  1.00  0.00    -0.287 OA
HETATM   35  H6  UNL     1      18.064   3.243  -3.532  1.00  0.00     0.164 HD
HETATM   36  H19 UNL     1      19.260   6.030  -6.431  1.00  0.00     0.163 HD
ENDROOT
BRANCH   1  37
HETATM   37  O1  UNL     1      19.964   4.388  -4.795  1.00  0.00    -0.368 OA
HETATM   38  H2  UNL     1      20.468   3.562  -4.570  1.00  0.00     0.212 HD
ENDBRANCH   1  37
TORSDOF 1
ENDMDL
MODEL 10
REMARK VINA RESULT:      -9.0      2.629      8.434
REMARK  1 active torsions:
REMARK  status: ('A' for Active; 'I' for Inactive)
REMARK    1  A    between atoms: C1_1  and  O1_2 
ROOT
HETATM    1  C1  UNL     1      18.441   7.311  -1.929  1.00  0.00     0.298 C 
HETATM    2  C2  UNL     1      17.531   6.070  -1.782  1.00  0.00     0.168 C 
HETATM    3  C3  UNL     1      17.222   5.401  -3.166  1.00  0.00     0.044 C 
HETATM    4  C4  UNL     1      16.266   4.143  -2.974  1.00  0.00     0.050 C 
HETATM    5  C5  UNL     1      15.971   3.937  -1.460  1.00  0.00     0.116 C 
HETATM    6  C6  UNL     1      17.325   3.838  -0.787  1.00  0.00     0.247 C 
HETATM    7  N1  UNL     1      18.144   5.013  -0.946  1.00  0.00    -0.337 N 
HETATM    8  O2  UNL     1      17.735   2.816  -0.174  1.00  0.00    -0.271 OA
HETATM    9  N2  UNL     1      15.380   5.176  -0.988  1.00  0.00    -0.331 N 
HETATM   10  C7  UNL     1      14.006   5.065  -0.557  1.00  0.00     0.127 C 
HETATM   11  C8  UNL     1      13.626   3.612  -0.858  1.00  0.00     0.023 C 
HETATM   12  C9  UNL     1      14.940   2.854  -1.130  1.00  0.00     0.043 C 
HETATM   13  C10 UNL     1      16.187   6.351  -1.128  1.00  0.00     0.255 C 
HETATM   14  O3  UNL     1      15.822   7.479  -0.699  1.00  0.00    -0.270 OA
HETATM   15  C11 UNL     1      16.793   6.448  -4.253  1.00  0.00     0.017 C 
HETATM   16  C12 UNL     1      15.371   7.029  -3.993  1.00  0.00     0.021 C 
HETATM   17  C13 UNL     1      16.774   5.749  -5.639  1.00  0.00     0.021 C 
HETATM   18  C14 UNL     1      17.858   7.616  -4.237  1.00  0.00     0.211 A 
HETATM   19  O4  UNL     1      17.997   8.205  -2.944  1.00  0.00    -0.320 OA
HETATM   20  N3  UNL     1      19.165   7.173  -4.773  1.00  0.00    -0.350 N 
HETATM   21  C15 UNL     1      19.493   7.936  -5.929  1.00  0.00     0.058 A 
HETATM   22  C16 UNL     1      18.530   8.864  -6.207  1.00  0.00     0.042 A 
HETATM   23  C17 UNL     1      18.629   9.734  -7.293  1.00  0.00     0.020 A 
HETATM   24  C18 UNL     1      19.755   9.630  -8.124  1.00  0.00     0.039 A 
HETATM   25  C19 UNL     1      20.747   8.664  -7.856  1.00  0.00     0.082 A 
HETATM   26  O5  UNL     1      21.871   8.563  -8.682  1.00  0.00    -0.336 OA
HETATM   27  C20 UNL     1      20.627   7.808  -6.745  1.00  0.00     0.025 A 
HETATM   28  C21 UNL     1      21.718   6.860  -6.462  1.00  0.00     0.015 C 
HETATM   29  C22 UNL     1      22.738   6.727  -7.315  1.00  0.00     0.012 C 
HETATM   30  C23 UNL     1      22.759   7.435  -8.659  1.00  0.00     0.078 C 
HETATM   31  C24 UNL     1      22.323   6.447  -9.748  1.00  0.00     0.051 C 
HETATM   32  C25 UNL     1      24.178   7.937  -8.948  1.00  0.00     0.051 C 
HETATM   33  C26 UNL     1      17.502   8.738  -5.197  1.00  0.00     0.217 A 
HETATM   34  O6  UNL     1      16.523   9.522  -5.080  1.00  0.00    -0.287 OA
HETATM   35  H6  UNL     1      19.090   5.090  -0.511  1.00  0.00     0.164 HD
HETATM   36  H19 UNL     1      19.692   6.324  -4.475  1.00  0.00     0.163 HD
ENDROOT
BRANCH   1  37
HETATM   37  O1  UNL     1      19.779   6.937  -2.133  1.00  0.00    -0.368 OA
HETATM   38  H2  UNL     1      19.875   6.752  -3.105  1.00  0.00     0.212 HD
ENDBRANCH   1  37
TORSDOF 1
ENDMDL
MODEL 11
REMARK VINA RESULT:      -8.9      2.267      9.068
REMARK  1 active torsions:
REMARK  status: ('A' for Active; 'I' for Inactive)
REMARK    1  A    between atoms: C1_1  and  O1_2 
ROOT
HETATM    1  C1  UNL     1      19.788   4.340  -2.691  1.00  0.00     0.298 C 
HETATM    2  C2  UNL     1      18.327   4.797  -2.470  1.00  0.00     0.168 C 
HETATM    3  C3  UNL     1      17.782   5.629  -3.682  1.00  0.00     0.044 C 
HETATM    4  C4  UNL     1      16.287   6.097  -3.406  1.00  0.00     0.050 C 
HETATM    5  C5  UNL     1      15.810   5.542  -2.033  1.00  0.00     0.116 C 
HETATM    6  C6  UNL     1      16.023   4.043  -2.100  1.00  0.00     0.247 C 
HETATM    7  N1  UNL     1      17.396   3.657  -2.307  1.00  0.00    -0.337 N 
HETATM    8  O2  UNL     1      15.095   3.194  -2.025  1.00  0.00    -0.271 OA
HETATM    9  N2  UNL     1      16.750   6.036  -1.045  1.00  0.00    -0.331 N 
HETATM   10  C7  UNL     1      16.189   6.953  -0.080  1.00  0.00     0.127 C 
HETATM   11  C8  UNL     1      14.740   7.149  -0.538  1.00  0.00     0.023 C 
HETATM   12  C9  UNL     1      14.440   6.037  -1.561  1.00  0.00     0.043 C 
HETATM   13  C10 UNL     1      18.118   5.650  -1.230  1.00  0.00     0.255 C 
HETATM   14  O3  UNL     1      19.025   5.955  -0.408  1.00  0.00    -0.270 OA
HETATM   15  C11 UNL     1      18.790   6.738  -4.147  1.00  0.00     0.017 C 
HETATM   16  C12 UNL     1      18.893   7.914  -3.130  1.00  0.00     0.021 C 
HETATM   17  C13 UNL     1      18.301   7.321  -5.499  1.00  0.00     0.021 C 
HETATM   18  C14 UNL     1      20.206   6.056  -4.317  1.00  0.00     0.211 A 
HETATM   19  O4  UNL     1      20.638   5.397  -3.126  1.00  0.00    -0.320 OA
HETATM   20  N3  UNL     1      20.236   5.142  -5.482  1.00  0.00    -0.350 N 
HETATM   21  C15 UNL     1      21.205   5.595  -6.423  1.00  0.00     0.058 A 
HETATM   22  C16 UNL     1      21.839   6.723  -5.984  1.00  0.00     0.042 A 
HETATM   23  C17 UNL     1      22.833   7.353  -6.732  1.00  0.00     0.020 A 
HETATM   24  C18 UNL     1      23.170   6.805  -7.980  1.00  0.00     0.039 A 
HETATM   25  C19 UNL     1      22.509   5.651  -8.450  1.00  0.00     0.082 A 
HETATM   26  O5  UNL     1      22.848   5.104  -9.691  1.00  0.00    -0.336 OA
HETATM   27  C20 UNL     1      21.519   5.029  -7.666  1.00  0.00     0.025 A 
HETATM   28  C21 UNL     1      20.902   3.787  -8.164  1.00  0.00     0.015 C 
HETATM   29  C22 UNL     1      21.184   3.334  -9.388  1.00  0.00     0.012 C 
HETATM   30  C23 UNL     1      22.035   4.130 -10.363  1.00  0.00     0.078 C 
HETATM   31  C24 UNL     1      21.112   4.860 -11.348  1.00  0.00     0.051 C 
HETATM   32  C25 UNL     1      22.961   3.177 -11.126  1.00  0.00     0.051 C 
HETATM   33  C26 UNL     1      21.289   7.053  -4.688  1.00  0.00     0.217 A 
HETATM   34  O6  UNL     1      21.732   7.967  -3.942  1.00  0.00    -0.287 OA
HETATM   35  H6  UNL     1      17.689   2.655  -2.345  1.00  0.00     0.164 HD
HETATM   36  H19 UNL     1      19.547   4.387  -5.685  1.00  0.00     0.163 HD
ENDROOT
BRANCH   1  37
HETATM   37  O1  UNL     1      19.850   3.246  -3.570  1.00  0.00    -0.368 OA
HETATM   38  H2  UNL     1      19.575   2.448  -3.047  1.00  0.00     0.212 HD
ENDBRANCH   1  37
TORSDOF 1
ENDMDL
MODEL 12
REMARK VINA RESULT:      -8.9     10.540     12.936
REMARK  1 active torsions:
REMARK  status: ('A' for Active; 'I' for Inactive)
REMARK    1  A    between atoms: C1_1  and  O1_2 
ROOT
HETATM    1  C1  UNL     1      19.062  14.838   5.854  1.00  0.00     0.298 C 
HETATM    2  C2  UNL     1      19.995  13.674   6.263  1.00  0.00     0.168 C 
HETATM    3  C3  UNL     1      19.310  12.703   7.285  1.00  0.00     0.044 C 
HETATM    4  C4  UNL     1      20.308  11.534   7.696  1.00  0.00     0.050 C 
HETATM    5  C5  UNL     1      21.645  11.690   6.916  1.00  0.00     0.116 C 
HETATM    6  C6  UNL     1      21.263  11.738   5.450  1.00  0.00     0.247 C 
HETATM    7  N1  UNL     1      20.394  12.836   5.109  1.00  0.00    -0.337 N 
HETATM    8  O2  UNL     1      21.626  10.884   4.598  1.00  0.00    -0.271 OA
HETATM    9  N2  UNL     1      22.154  13.010   7.239  1.00  0.00    -0.331 N 
HETATM   10  C7  UNL     1      23.394  13.017   7.980  1.00  0.00     0.127 C 
HETATM   11  C8  UNL     1      23.688  11.538   8.245  1.00  0.00     0.023 C 
HETATM   12  C9  UNL     1      22.762  10.724   7.321  1.00  0.00     0.043 C 
HETATM   13  C10 UNL     1      21.306  14.113   6.894  1.00  0.00     0.255 C 
HETATM   14  O3  UNL     1      21.655  15.314   7.060  1.00  0.00    -0.270 OA
HETATM   15  C11 UNL     1      18.607  13.471   8.460  1.00  0.00     0.017 C 
HETATM   16  C12 UNL     1      19.628  14.110   9.448  1.00  0.00     0.021 C 
HETATM   17  C13 UNL     1      17.736  12.467   9.261  1.00  0.00     0.021 C 
HETATM   18  C14 UNL     1      17.705  14.601   7.820  1.00  0.00     0.211 A 
HETATM   19  O4  UNL     1      18.451  15.474   6.972  1.00  0.00    -0.320 OA
HETATM   20  N3  UNL     1      16.534  14.032   7.115  1.00  0.00    -0.350 N 
HETATM   21  C15 UNL     1      15.334  14.500   7.723  1.00  0.00     0.058 A 
HETATM   22  C16 UNL     1      15.597  15.346   8.763  1.00  0.00     0.042 A 
HETATM   23  C17 UNL     1      14.581  15.938   9.513  1.00  0.00     0.020 A 
HETATM   24  C18 UNL     1      13.251  15.632   9.184  1.00  0.00     0.039 A 
HETATM   25  C19 UNL     1      12.969  14.746   8.124  1.00  0.00     0.082 A 
HETATM   26  O5  UNL     1      11.645  14.443   7.794  1.00  0.00    -0.336 OA
HETATM   27  C20 UNL     1      14.016  14.174   7.375  1.00  0.00     0.025 A 
HETATM   28  C21 UNL     1      13.676  13.308   6.234  1.00  0.00     0.015 C 
HETATM   29  C22 UNL     1      12.406  12.970   5.994  1.00  0.00     0.012 C 
HETATM   30  C23 UNL     1      11.282  13.344   6.945  1.00  0.00     0.078 C 
HETATM   31  C24 UNL     1      10.953  12.133   7.828  1.00  0.00     0.051 C 
HETATM   32  C25 UNL     1      10.045  13.750   6.137  1.00  0.00     0.051 C 
HETATM   33  C26 UNL     1      17.035  15.470   8.869  1.00  0.00     0.217 A 
HETATM   34  O6  UNL     1      17.622  16.269   9.646  1.00  0.00    -0.287 OA
HETATM   35  H6  UNL     1      20.074  13.004   4.128  1.00  0.00     0.164 HD
HETATM   36  H19 UNL     1      16.559  13.271   6.403  1.00  0.00     0.163 HD
ENDROOT
BRANCH   1  37
HETATM   37  O1  UNL     1      18.100  14.413   4.924  1.00  0.00    -0.368 OA
HETATM   38  H2  UNL     1      18.598  14.001   4.170  1.00  0.00     0.212 HD
ENDBRANCH   1  37
TORSDOF 1
ENDMDL
MODEL 13
REMARK VINA RESULT:      -8.9      9.869     12.348
REMARK  1 active torsions:
REMARK  status: ('A' for Active; 'I' for Inactive)
REMARK    1  A    between atoms: C1_1  and  O1_2 
ROOT
HETATM    1  C1  UNL     1      21.022  -1.813  -6.029  1.00  0.00     0.298 C 
HETATM    2  C2  UNL     1      21.050  -3.359  -6.028  1.00  0.00     0.168 C 
HETATM    3  C3  UNL     1      22.379  -3.923  -5.417  1.00  0.00     0.044 C 
HETATM    4  C4  UNL     1      22.377  -5.513  -5.455  1.00  0.00     0.050 C 
HETATM    5  C5  UNL     1      21.030  -6.021  -6.046  1.00  0.00     0.116 C 
HETATM    6  C6  UNL     1      19.945  -5.386  -5.200  1.00  0.00     0.247 C 
HETATM    7  N1  UNL     1      19.951  -3.945  -5.226  1.00  0.00    -0.337 N 
HETATM    8  O2  UNL     1      19.127  -6.037  -4.497  1.00  0.00    -0.271 OA
HETATM    9  N2  UNL     1      20.912  -5.422  -7.363  1.00  0.00    -0.331 N 
HETATM   10  C7  UNL     1      20.944  -6.361  -8.460  1.00  0.00     0.127 C 
HETATM   11  C8  UNL     1      21.196  -7.717  -7.795  1.00  0.00     0.023 C 
HETATM   12  C9  UNL     1      20.942  -7.530  -6.287  1.00  0.00     0.043 C 
HETATM   13  C10 UNL     1      20.904  -3.990  -7.404  1.00  0.00     0.255 C 
HETATM   14  O3  UNL     1      20.741  -3.343  -8.475  1.00  0.00    -0.270 OA
HETATM   15  C11 UNL     1      23.652  -3.209  -5.994  1.00  0.00     0.017 C 
HETATM   16  C12 UNL     1      23.934  -3.600  -7.475  1.00  0.00     0.021 C 
HETATM   17  C13 UNL     1      24.884  -3.627  -5.149  1.00  0.00     0.021 C 
HETATM   18  C14 UNL     1      23.413  -1.649  -5.891  1.00  0.00     0.211 A 
HETATM   19  O4  UNL     1      22.215  -1.239  -6.552  1.00  0.00    -0.320 OA
HETATM   20  N3  UNL     1      23.441  -1.183  -4.485  1.00  0.00    -0.350 N 
HETATM   21  C15 UNL     1      24.501  -0.249  -4.311  1.00  0.00     0.058 A 
HETATM   22  C16 UNL     1      25.176  -0.033  -5.479  1.00  0.00     0.042 A 
HETATM   23  C17 UNL     1      26.255   0.846  -5.561  1.00  0.00     0.020 A 
HETATM   24  C18 UNL     1      26.656   1.512  -4.393  1.00  0.00     0.039 A 
HETATM   25  C19 UNL     1      25.978   1.284  -3.178  1.00  0.00     0.082 A 
HETATM   26  O5  UNL     1      26.376   1.950  -2.015  1.00  0.00    -0.336 OA
HETATM   27  C20 UNL     1      24.883   0.401  -3.128  1.00  0.00     0.025 A 
HETATM   28  C21 UNL     1      24.160   0.243  -1.855  1.00  0.00     0.015 C 
HETATM   29  C22 UNL     1      24.612   0.827  -0.742  1.00  0.00     0.012 C 
HETATM   30  C23 UNL     1      25.943   1.559  -0.703  1.00  0.00     0.078 C 
HETATM   31  C24 UNL     1      27.004   0.632  -0.096  1.00  0.00     0.051 C 
HETATM   32  C25 UNL     1      25.804   2.823   0.153  1.00  0.00     0.051 C 
HETATM   33  C26 UNL     1      24.550  -0.847  -6.498  1.00  0.00     0.217 A 
HETATM   34  O6  UNL     1      24.844  -0.801  -7.723  1.00  0.00    -0.287 OA
HETATM   35  H6  UNL     1      19.241  -3.379  -4.709  1.00  0.00     0.164 HD
HETATM   36  H19 UNL     1      22.899  -1.592  -3.695  1.00  0.00     0.163 HD
ENDROOT
BRANCH   1  37
HETATM   37  O1  UNL     1      20.737  -1.311  -4.749  1.00  0.00    -0.368 OA
HETATM   38  H2  UNL     1      21.594  -1.314  -4.247  1.00  0.00     0.212 HD
ENDBRANCH   1  37
TORSDOF 1
ENDMDL
MODEL 14
REMARK VINA RESULT:      -8.9     11.381     13.154
REMARK  1 active torsions:
REMARK  status: ('A' for Active; 'I' for Inactive)
REMARK    1  A    between atoms: C1_1  and  O1_2 
ROOT
HETATM    1  C1  UNL     1      26.634  -2.271  -6.566  1.00  0.00     0.298 C 
HETATM    2  C2  UNL     1      25.244  -2.576  -7.171  1.00  0.00     0.168 C 
HETATM    3  C3  UNL     1      24.194  -2.955  -6.070  1.00  0.00     0.044 C 
HETATM    4  C4  UNL     1      22.786  -3.282  -6.735  1.00  0.00     0.050 C 
HETATM    5  C5  UNL     1      22.874  -3.078  -8.275  1.00  0.00     0.116 C 
HETATM    6  C6  UNL     1      23.378  -1.662  -8.474  1.00  0.00     0.247 C 
HETATM    7  N1  UNL     1      24.675  -1.417  -7.896  1.00  0.00    -0.337 N 
HETATM    8  O2  UNL     1      22.722  -0.755  -9.052  1.00  0.00    -0.271 OA
HETATM    9  N2  UNL     1      23.938  -3.949  -8.741  1.00  0.00    -0.331 N 
HETATM   10  C7  UNL     1      23.507  -5.020  -9.610  1.00  0.00     0.127 C 
HETATM   11  C8  UNL     1      21.981  -4.887  -9.651  1.00  0.00     0.023 C 
HETATM   12  C9  UNL     1      21.636  -3.503  -9.069  1.00  0.00     0.043 C 
HETATM   13  C10 UNL     1      25.236  -3.709  -8.185  1.00  0.00     0.255 C 
HETATM   14  O3  UNL     1      26.259  -4.349  -8.551  1.00  0.00    -0.270 OA
HETATM   15  C11 UNL     1      24.751  -4.010  -5.051  1.00  0.00     0.017 C 
HETATM   16  C12 UNL     1      24.896  -5.428  -5.681  1.00  0.00     0.021 C 
HETATM   17  C13 UNL     1      23.764  -4.120  -3.858  1.00  0.00     0.021 C 
HETATM   18  C14 UNL     1      26.163  -3.498  -4.557  1.00  0.00     0.211 A 
HETATM   19  O4  UNL     1      27.064  -3.264  -5.640  1.00  0.00    -0.320 OA
HETATM   20  N3  UNL     1      26.039  -2.306  -3.688  1.00  0.00    -0.350 N 
HETATM   21  C15 UNL     1      26.559  -2.598  -2.395  1.00  0.00     0.058 A 
HETATM   22  C16 UNL     1      27.035  -3.877  -2.324  1.00  0.00     0.042 A 
HETATM   23  C17 UNL     1      27.598  -4.395  -1.159  1.00  0.00     0.020 A 
HETATM   24  C18 UNL     1      27.656  -3.567  -0.027  1.00  0.00     0.039 A 
HETATM   25  C19 UNL     1      27.151  -2.251  -0.084  1.00  0.00     0.082 A 
HETATM   26  O5  UNL     1      27.211  -1.426   1.043  1.00  0.00    -0.336 OA
HETATM   27  C20 UNL     1      26.601  -1.751  -1.279  1.00  0.00     0.025 A 
HETATM   28  C21 UNL     1      26.147  -0.350  -1.315  1.00  0.00     0.015 C 
HETATM   29  C22 UNL     1      26.140   0.389  -0.202  1.00  0.00     0.012 C 
HETATM   30  C23 UNL     1      26.466  -0.204   1.158  1.00  0.00     0.078 C 
HETATM   31  C24 UNL     1      25.155  -0.500   1.899  1.00  0.00     0.051 C 
HETATM   32  C25 UNL     1      27.304   0.796   1.962  1.00  0.00     0.051 C 
HETATM   33  C26 UNL     1      26.842  -4.484  -3.623  1.00  0.00     0.217 A 
HETATM   34  O6  UNL     1      27.279  -5.621  -3.946  1.00  0.00    -0.287 OA
HETATM   35  H6  UNL     1      25.153  -0.492  -7.982  1.00  0.00     0.164 HD
HETATM   36  H19 UNL     1      25.502  -1.441  -3.910  1.00  0.00     0.163 HD
ENDROOT
BRANCH   1  37
HETATM   37  O1  UNL     1      26.665  -0.992  -5.987  1.00  0.00    -0.368 OA
HETATM   38  H2  UNL     1      26.014  -0.437  -6.493  1.00  0.00     0.212 HD
ENDBRANCH   1  37
TORSDOF 1
ENDMDL
MODEL 15
REMARK VINA RESULT:      -8.8      3.004      8.516
REMARK  1 active torsions:
REMARK  status: ('A' for Active; 'I' for Inactive)
REMARK    1  A    between atoms: C1_1  and  O1_2 
ROOT
HETATM    1  C1  UNL     1      17.176   3.976  -3.665  1.00  0.00     0.298 C 
HETATM    2  C2  UNL     1      16.172   4.395  -2.566  1.00  0.00     0.168 C 
HETATM    3  C3  UNL     1      15.409   5.713  -2.939  1.00  0.00     0.044 C 
HETATM    4  C4  UNL     1      14.405   6.121  -1.774  1.00  0.00     0.050 C 
HETATM    5  C5  UNL     1      14.456   5.056  -0.642  1.00  0.00     0.116 C 
HETATM    6  C6  UNL     1      14.172   3.728  -1.314  1.00  0.00     0.247 C 
HETATM    7  N1  UNL     1      15.128   3.372  -2.332  1.00  0.00    -0.337 N 
HETATM    8  O2  UNL     1      13.174   3.004  -1.053  1.00  0.00    -0.271 OA
HETATM    9  N2  UNL     1      15.838   4.994  -0.203  1.00  0.00    -0.331 N 
HETATM   10  C7  UNL     1      16.062   5.432   1.155  1.00  0.00     0.127 C 
HETATM   11  C8  UNL     1      14.689   5.915   1.632  1.00  0.00     0.023 C 
HETATM   12  C9  UNL     1      13.654   5.393   0.619  1.00  0.00     0.043 C 
HETATM   13  C10 UNL     1      16.799   4.629  -1.201  1.00  0.00     0.255 C 
HETATM   14  O3  UNL     1      18.023   4.474  -0.938  1.00  0.00    -0.270 OA
HETATM   15  C11 UNL     1      16.375   6.836  -3.458  1.00  0.00     0.017 C 
HETATM   16  C12 UNL     1      17.259   7.434  -2.323  1.00  0.00     0.021 C 
HETATM   17  C13 UNL     1      15.524   7.989  -4.054  1.00  0.00     0.021 C 
HETATM   18  C14 UNL     1      17.297   6.195  -4.571  1.00  0.00     0.211 A 
HETATM   19  O4  UNL     1      18.005   5.050  -4.095  1.00  0.00    -0.320 OA
HETATM   20  N3  UNL     1      16.535   5.887  -5.803  1.00  0.00    -0.350 N 
HETATM   21  C15 UNL     1      17.064   6.635  -6.893  1.00  0.00     0.058 A 
HETATM   22  C16 UNL     1      18.124   7.405  -6.506  1.00  0.00     0.042 A 
HETATM   23  C17 UNL     1      18.812   8.225  -7.400  1.00  0.00     0.020 A 
HETATM   24  C18 UNL     1      18.378   8.258  -8.735  1.00  0.00     0.039 A 
HETATM   25  C19 UNL     1      17.274   7.480  -9.141  1.00  0.00     0.082 A 
HETATM   26  O5  UNL     1      16.844   7.512 -10.472  1.00  0.00    -0.336 OA
HETATM   27  C20 UNL     1      16.607   6.652  -8.219  1.00  0.00     0.025 A 
HETATM   28  C21 UNL     1      15.503   5.805  -8.700  1.00  0.00     0.015 C 
HETATM   29  C22 UNL     1      15.060   5.917  -9.956  1.00  0.00     0.012 C 
HETATM   30  C23 UNL     1      15.573   6.996 -10.895  1.00  0.00     0.078 C 
HETATM   31  C24 UNL     1      14.563   8.151 -10.926  1.00  0.00     0.051 C 
HETATM   32  C25 UNL     1      15.737   6.410 -12.301  1.00  0.00     0.051 C 
HETATM   33  C26 UNL     1      18.336   7.171  -5.094  1.00  0.00     0.217 A 
HETATM   34  O6  UNL     1      19.310   7.629  -4.439  1.00  0.00    -0.287 OA
HETATM   35  H6  UNL     1      15.067   2.470  -2.857  1.00  0.00     0.164 HD
HETATM   36  H19 UNL     1      15.643   5.352  -5.851  1.00  0.00     0.163 HD
ENDROOT
BRANCH   1  37
HETATM   37  O1  UNL     1      16.516   3.379  -4.752  1.00  0.00    -0.368 OA
HETATM   38  H2  UNL     1      17.069   3.568  -5.555  1.00  0.00     0.212 HD
ENDBRANCH   1  37
TORSDOF 1
ENDMDL
MODEL 16
REMARK VINA RESULT:      -8.8     11.617     13.750
REMARK  1 active torsions:
REMARK  status: ('A' for Active; 'I' for Inactive)
REMARK    1  A    between atoms: C1_1  and  O1_2 
ROOT
HETATM    1  C1  UNL     1      21.728  10.973   6.631  1.00  0.00     0.298 C 
HETATM    2  C2  UNL     1      21.543  12.416   7.156  1.00  0.00     0.168 C 
HETATM    3  C3  UNL     1      21.358  12.456   8.712  1.00  0.00     0.044 C 
HETATM    4  C4  UNL     1      21.150  13.953   9.208  1.00  0.00     0.050 C 
HETATM    5  C5  UNL     1      21.243  14.924   7.996  1.00  0.00     0.116 C 
HETATM    6  C6  UNL     1      22.577  14.633   7.337  1.00  0.00     0.247 C 
HETATM    7  N1  UNL     1      22.711  13.279   6.862  1.00  0.00    -0.337 N 
HETATM    8  O2  UNL     1      23.514  15.470   7.240  1.00  0.00    -0.271 OA
HETATM    9  N2  UNL     1      20.229  14.493   7.051  1.00  0.00    -0.331 N 
HETATM   10  C7  UNL     1      19.160  15.441   6.836  1.00  0.00     0.127 C 
HETATM   11  C8  UNL     1      19.462  16.584   7.810  1.00  0.00     0.023 C 
HETATM   12  C9  UNL     1      20.911  16.388   8.295  1.00  0.00     0.043 C 
HETATM   13  C10 UNL     1      20.355  13.153   6.559  1.00  0.00     0.255 C 
HETATM   14  O3  UNL     1      19.581  12.676   5.685  1.00  0.00    -0.270 OA
HETATM   15  C11 UNL     1      20.315  11.398   9.217  1.00  0.00     0.017 C 
HETATM   16  C12 UNL     1      18.852  11.775   8.834  1.00  0.00     0.021 C 
HETATM   17  C13 UNL     1      20.394  11.318  10.765  1.00  0.00     0.021 C 
HETATM   18  C14 UNL     1      20.694  10.007   8.570  1.00  0.00     0.211 A 
HETATM   19  O4  UNL     1      20.754  10.070   7.144  1.00  0.00    -0.320 OA
HETATM   20  N3  UNL     1      21.946   9.461   9.141  1.00  0.00    -0.350 N 
HETATM   21  C15 UNL     1      21.680   8.215   9.776  1.00  0.00     0.058 A 
HETATM   22  C16 UNL     1      20.364   7.868   9.668  1.00  0.00     0.042 A 
HETATM   23  C17 UNL     1      19.861   6.685  10.210  1.00  0.00     0.020 A 
HETATM   24  C18 UNL     1      20.749   5.842  10.897  1.00  0.00     0.039 A 
HETATM   25  C19 UNL     1      22.106   6.200  11.030  1.00  0.00     0.082 A 
HETATM   26  O5  UNL     1      22.991   5.359  11.713  1.00  0.00    -0.336 OA
HETATM   27  C20 UNL     1      22.588   7.394  10.461  1.00  0.00     0.025 A 
HETATM   28  C21 UNL     1      24.026   7.695  10.564  1.00  0.00     0.015 C 
HETATM   29  C22 UNL     1      24.831   6.917  11.293  1.00  0.00     0.012 C 
HETATM   30  C23 UNL     1      24.294   5.779  12.144  1.00  0.00     0.078 C 
HETATM   31  C24 UNL     1      24.196   6.251  13.601  1.00  0.00     0.051 C 
HETATM   32  C25 UNL     1      25.242   4.579  12.048  1.00  0.00     0.051 C 
HETATM   33  C26 UNL     1      19.700   8.914   8.922  1.00  0.00     0.217 A 
HETATM   34  O6  UNL     1      18.502   8.857   8.534  1.00  0.00    -0.287 OA
HETATM   35  H6  UNL     1      23.568  12.949   6.364  1.00  0.00     0.164 HD
HETATM   36  H19 UNL     1      22.850   9.971   9.231  1.00  0.00     0.163 HD
ENDROOT
BRANCH   1  37
HETATM   37  O1  UNL     1      23.030  10.507   6.876  1.00  0.00    -0.368 OA
HETATM   38  H2  UNL     1      23.353  10.114   6.023  1.00  0.00     0.212 HD
ENDBRANCH   1  37
TORSDOF 1
ENDMDL
MODEL 17
REMARK VINA RESULT:      -8.7      6.759     13.434
REMARK  1 active torsions:
REMARK  status: ('A' for Active; 'I' for Inactive)
REMARK    1  A    between atoms: C1_1  and  O1_2 
ROOT
HETATM    1  C1  UNL     1       9.612  11.211   6.591  1.00  0.00     0.298 C 
HETATM    2  C2  UNL     1       9.563  12.753   6.492  1.00  0.00     0.168 C 
HETATM    3  C3  UNL     1      10.921  13.354   5.989  1.00  0.00     0.044 C 
HETATM    4  C4  UNL     1      10.835  14.941   5.923  1.00  0.00     0.050 C 
HETATM    5  C5  UNL     1       9.409  15.406   6.335  1.00  0.00     0.116 C 
HETATM    6  C6  UNL     1       8.455  14.661   5.423  1.00  0.00     0.247 C 
HETATM    7  N1  UNL     1       8.530  13.227   5.543  1.00  0.00    -0.337 N 
HETATM    8  O2  UNL     1       7.686  15.223   4.597  1.00  0.00    -0.271 OA
HETATM    9  N2  UNL     1       9.179  14.880   7.668  1.00  0.00    -0.331 N 
HETATM   10  C7  UNL     1       9.045  15.883   8.699  1.00  0.00     0.127 C 
HETATM   11  C8  UNL     1       9.300  17.210   7.978  1.00  0.00     0.023 C 
HETATM   12  C9  UNL     1       9.220  16.920   6.467  1.00  0.00     0.043 C 
HETATM   13  C10 UNL     1       9.238  13.455   7.801  1.00  0.00     0.255 C 
HETATM   14  O3  UNL     1       8.993  12.865   8.889  1.00  0.00    -0.270 OA
HETATM   15  C11 UNL     1      12.158  12.748   6.741  1.00  0.00     0.017 C 
HETATM   16  C12 UNL     1      12.258  13.242   8.216  1.00  0.00     0.021 C 
HETATM   17  C13 UNL     1      13.452  13.185   6.005  1.00  0.00     0.021 C 
HETATM   18  C14 UNL     1      12.009  11.175   6.715  1.00  0.00     0.211 A 
HETATM   19  O4  UNL     1      10.770  10.737   7.273  1.00  0.00    -0.320 OA
HETATM   20  N3  UNL     1      12.213  10.628   5.354  1.00  0.00    -0.350 N 
HETATM   21  C15 UNL     1      13.331   9.747   5.353  1.00  0.00     0.058 A 
HETATM   22  C16 UNL     1      13.886   9.640   6.597  1.00  0.00     0.042 A 
HETATM   23  C17 UNL     1      14.992   8.829   6.849  1.00  0.00     0.020 A 
HETATM   24  C18 UNL     1      15.550   8.118   5.775  1.00  0.00     0.039 A 
HETATM   25  C19 UNL     1      14.996   8.235   4.483  1.00  0.00     0.082 A 
HETATM   26  O5  UNL     1      15.551   7.525   3.414  1.00  0.00    -0.336 OA
HETATM   27  C20 UNL     1      13.871   9.051   4.262  1.00  0.00     0.025 A 
HETATM   28  C21 UNL     1      13.283   9.091   2.912  1.00  0.00     0.015 C 
HETATM   29  C22 UNL     1      13.882   8.469   1.893  1.00  0.00     0.012 C 
HETATM   30  C23 UNL     1      15.244   7.812   2.041  1.00  0.00     0.078 C 
HETATM   31  C24 UNL     1      16.316   8.761   1.490  1.00  0.00     0.051 C 
HETATM   32  C25 UNL     1      15.261   6.494   1.260  1.00  0.00     0.051 C 
HETATM   33  C26 UNL     1      13.113  10.476   7.490  1.00  0.00     0.217 A 
HETATM   34  O6  UNL     1      13.274  10.519   8.738  1.00  0.00    -0.287 OA
HETATM   35  H6  UNL     1       7.910  12.593   4.993  1.00  0.00     0.164 HD
HETATM   36  H19 UNL     1      11.740  10.959   4.486  1.00  0.00     0.163 HD
ENDROOT
BRANCH   1  37
HETATM   37  O1  UNL     1       9.493  10.618   5.323  1.00  0.00    -0.368 OA
HETATM   38  H2  UNL     1       8.713  11.047   4.883  1.00  0.00     0.212 HD
ENDBRANCH   1  37
TORSDOF 1
ENDMDL
MODEL 18
REMARK VINA RESULT:      -8.7      8.478     11.740
REMARK  1 active torsions:
REMARK  status: ('A' for Active; 'I' for Inactive)
REMARK    1  A    between atoms: C1_1  and  O1_2 
ROOT
HETATM    1  C1  UNL     1      23.563   0.361  -5.872  1.00  0.00     0.298 C 
HETATM    2  C2  UNL     1      22.036   0.353  -6.111  1.00  0.00     0.168 C 
HETATM    3  C3  UNL     1      21.355  -0.931  -5.524  1.00  0.00     0.044 C 
HETATM    4  C4  UNL     1      19.790  -0.910  -5.810  1.00  0.00     0.050 C 
HETATM    5  C5  UNL     1      19.410   0.407  -6.546  1.00  0.00     0.116 C 
HETATM    6  C6  UNL     1      19.930   1.530  -5.671  1.00  0.00     0.247 C 
HETATM    7  N1  UNL     1      21.356   1.504  -5.471  1.00  0.00    -0.337 N 
HETATM    8  O2  UNL     1      19.195   2.396  -5.124  1.00  0.00    -0.271 OA
HETATM    9  N2  UNL     1      20.209   0.442  -7.757  1.00  0.00    -0.331 N 
HETATM   10  C7  UNL     1      19.451   0.359  -8.984  1.00  0.00     0.127 C 
HETATM   11  C8  UNL     1      18.003   0.163  -8.527  1.00  0.00     0.023 C 
HETATM   12  C9  UNL     1      17.959   0.500  -7.024  1.00  0.00     0.043 C 
HETATM   13  C10 UNL     1      21.630   0.428  -7.575  1.00  0.00     0.255 C 
HETATM   14  O3  UNL     1      22.438   0.522  -8.538  1.00  0.00    -0.270 OA
HETATM   15  C11 UNL     1      22.122  -2.244  -5.912  1.00  0.00     0.017 C 
HETATM   16  C12 UNL     1      21.960  -2.606  -7.419  1.00  0.00     0.021 C 
HETATM   17  C13 UNL     1      21.551  -3.421  -5.078  1.00  0.00     0.021 C 
HETATM   18  C14 UNL     1      23.652  -2.020  -5.580  1.00  0.00     0.211 A 
HETATM   19  O4  UNL     1      24.185  -0.868  -6.233  1.00  0.00    -0.320 OA
HETATM   20  N3  UNL     1      23.893  -1.974  -4.119  1.00  0.00    -0.350 N 
HETATM   21  C15 UNL     1      24.766  -3.035  -3.744  1.00  0.00     0.058 A 
HETATM   22  C16 UNL     1      25.145  -3.778  -4.826  1.00  0.00     0.042 A 
HETATM   23  C17 UNL     1      26.003  -4.872  -4.711  1.00  0.00     0.020 A 
HETATM   24  C18 UNL     1      26.471  -5.214  -3.432  1.00  0.00     0.039 A 
HETATM   25  C19 UNL     1      26.071  -4.464  -2.306  1.00  0.00     0.082 A 
HETATM   26  O5  UNL     1      26.540  -4.803  -1.034  1.00  0.00    -0.336 OA
HETATM   27  C20 UNL     1      25.215  -3.357  -2.455  1.00  0.00     0.025 A 
HETATM   28  C21 UNL     1      24.878  -2.560  -1.264  1.00  0.00     0.015 C 
HETATM   29  C22 UNL     1      25.271  -2.956  -0.050  1.00  0.00     0.012 C 
HETATM   30  C23 UNL     1      25.960  -4.291   0.175  1.00  0.00     0.078 C 
HETATM   31  C24 UNL     1      24.926  -5.303   0.687  1.00  0.00     0.051 C 
HETATM   32  C25 UNL     1      27.078  -4.120   1.210  1.00  0.00     0.051 C 
HETATM   33  C26 UNL     1      24.513  -3.200  -5.992  1.00  0.00     0.217 A 
HETATM   34  O6  UNL     1      24.743  -3.564  -7.176  1.00  0.00    -0.287 OA
HETATM   35  H6  UNL     1      21.851   2.234  -4.912  1.00  0.00     0.164 HD
HETATM   36  H19 UNL     1      23.378  -1.382  -3.433  1.00  0.00     0.163 HD
ENDROOT
BRANCH   1  37
HETATM   37  O1  UNL     1      23.867   0.712  -4.547  1.00  0.00    -0.368 OA
HETATM   38  H2  UNL     1      24.719   1.222  -4.578  1.00  0.00     0.212 HD
ENDBRANCH   1  37
TORSDOF 1
ENDMDL
