REMARK  8 active torsions:
REMARK  status: ('A' for Active; 'I' for Inactive)
REMARK    1  A    between atoms: C5_7  and  C6_8 
REMARK    2  A    between atoms: C14_17  and  O2_18 
REMARK    3  A    between atoms: C15_19  and  C16_20 
REMARK    4  A    between atoms: C16_20  and  O4_22 
REMARK    5  A    between atoms: C17_23  and  O5_24 
REMARK    6  A    between atoms: C20_29  and  C21_30 
REMARK    7  A    between atoms: C21_30  and  C22_31 
REMARK    8  A    between atoms: C22_31  and  O8_46 
ROOT
HETATM    1  C1  UNL     1       4.050   0.022   3.119  1.00  0.00     0.059 A 
HETATM    2  C2  UNL     1       4.399   0.787   1.993  1.00  0.00     0.049 A 
HETATM    3  N1  UNL     1       3.676   0.670   0.858  1.00  0.00    -0.340 N 
HETATM    4  H1  UNL     1       3.978   1.171   0.023  1.00  0.00     0.167 HD
HETATM    5  C3  UNL     1       2.555  -0.099   0.800  1.00  0.00     0.138 C 
HETATM    6  C4  UNL     1       1.954  -0.413  -0.532  1.00  0.00     0.078 C 
HETATM    7  C5  UNL     1       2.172   0.398  -1.592  1.00  0.00     0.043 C 
HETATM    8  N2  UNL     1       1.175  -1.626  -0.621  1.00  0.00    -0.322 N 
HETATM    9  C19 UNL     1       0.692  -2.199   0.595  1.00  0.00     0.245 C 
HETATM   10  O6  UNL     1       0.328  -3.404   0.629  1.00  0.00    -0.271 OA
HETATM   11  C20 UNL     1       0.716  -1.325   1.821  1.00  0.00     0.190 C 
HETATM   12  N5  UNL     1       2.089  -0.743   1.931  1.00  0.00    -0.283 N 
HETATM   13  C34 UNL     1       2.897  -0.785   3.051  1.00  0.00     0.262 C 
HETATM   14  O9  UNL     1       2.653  -1.575   4.005  1.00  0.00    -0.267 OA
HETATM   15  C35 UNL     1       5.528   1.614   2.023  1.00  0.00     0.030 A 
HETATM   16  C36 UNL     1       6.311   1.686   3.177  1.00  0.00     0.002 A 
HETATM   17  C37 UNL     1       5.986   0.910   4.296  1.00  0.00     0.001 A 
HETATM   18  C38 UNL     1       4.862   0.078   4.269  1.00  0.00     0.019 A 
HETATM   19  H17 UNL     1       1.069  -2.180  -1.501  1.00  0.00     0.169 HD
ENDROOT
BRANCH   7  20
HETATM   20  C6  UNL     1       1.724   0.134  -3.013  1.00  0.00     0.183 C 
HETATM   21  O1  UNL     1       2.849   0.406  -3.824  1.00  0.00    -0.372 OA
HETATM   22  C7  UNL     1       2.654  -0.110  -5.120  1.00  0.00     0.127 C 
HETATM   23  C8  UNL     1       3.936   0.131  -5.929  1.00  0.00     0.040 C 
HETATM   24  C9  UNL     1       1.416   0.535  -5.822  1.00  0.00     0.044 C 
HETATM   25  C10 UNL     1       0.611  -0.566  -6.542  1.00  0.00     0.017 C 
HETATM   26  C11 UNL     1       0.496   1.299  -4.864  1.00  0.00    -0.031 C 
HETATM   27  C12 UNL     1      -0.476   2.229  -5.344  1.00  0.00    -0.020 C 
HETATM   28  C18 UNL     1       0.570   1.014  -3.481  1.00  0.00     0.016 C 
HETATM   29  C13 UNL     1      -0.556   2.648  -6.798  1.00  0.00     0.052 C 
HETATM   30  C14 UNL     1      -1.406   2.787  -4.436  1.00  0.00     0.091 C 
HETATM   31  C15 UNL     1      -1.423   2.379  -3.092  1.00  0.00     0.104 C 
HETATM   32  C17 UNL     1      -0.441   1.487  -2.612  1.00  0.00     0.095 C 
BRANCH  30  33
HETATM   33  O2  UNL     1      -2.358   3.728  -4.854  1.00  0.00    -0.359 OA
HETATM   34  H14 UNL     1      -2.385   4.131  -5.782  1.00  0.00     0.217 HD
ENDBRANCH  30  33
BRANCH  31  35
HETATM   35  C16 UNL     1      -2.506   2.872  -2.209  1.00  0.00     0.181 C 
HETATM   36  O3  UNL     1      -2.776   4.103  -2.163  1.00  0.00    -0.646 OA
BRANCH  35  37
HETATM   37  O4  UNL     1      -3.265   1.973  -1.463  1.00  0.00    -0.772 OA
HETATM   38  H15 UNL     1      -4.027   2.296  -0.886  1.00  0.00     0.167 HD
ENDBRANCH  35  37
ENDBRANCH  31  35
BRANCH  32  39
HETATM   39  O5  UNL     1      -0.445   1.075  -1.275  1.00  0.00    -0.359 OA
HETATM   40  H16 UNL     1      -1.044   1.470  -0.565  1.00  0.00     0.217 HD
ENDBRANCH  32  39
ENDBRANCH   7  20
BRANCH  11  41
HETATM   41  C21 UNL     1       0.109  -1.988   3.092  1.00  0.00     0.082 C 
BRANCH  41  42
HETATM   42  C22 UNL     1      -1.448  -2.053   3.088  1.00  0.00     0.133 C 
HETATM   43  C23 UNL     1      -2.094  -0.623   3.312  1.00  0.00     0.347 A 
HETATM   44  N3  UNL     1      -3.129  -0.823   4.336  1.00  0.00    -0.182 NA
HETATM   45  N4  UNL     1      -2.717   0.018   2.118  1.00  0.00     0.124 N 
HETATM   46  C24 UNL     1      -2.933  -2.092   4.932  1.00  0.00     0.029 A 
HETATM   47  C33 UNL     1      -4.361  -0.392   3.806  1.00  0.00     0.245 A 
HETATM   48  C25 UNL     1      -1.954  -2.809   4.292  1.00  0.00     0.001 A 
HETATM   49  C28 UNL     1      -3.649  -2.625   6.008  1.00  0.00     0.025 A 
HETATM   50  C26 UNL     1      -1.665  -4.125   4.675  1.00  0.00     0.012 A 
HETATM   51  C27 UNL     1      -2.358  -4.678   5.767  1.00  0.00     0.001 A 
HETATM   52  C29 UNL     1      -3.345  -3.927   6.433  1.00  0.00     0.002 A 
HETATM   53  C30 UNL     1      -4.127   0.156   2.473  1.00  0.00     0.234 A 
HETATM   54  O7  UNL     1      -5.476  -0.566   4.364  1.00  0.00    -0.276 OA
HETATM   55  C31 UNL     1      -5.177   0.353   1.399  1.00  0.00     0.054 A 
HETATM   56  C32 UNL     1      -4.677   1.547   2.219  1.00  0.00     0.054 A 
HETATM   57  H26 UNL     1      -2.628  -0.553   1.251  1.00  0.00     0.319 HD
BRANCH  42  58
HETATM   58  O8  UNL     1      -1.918  -2.688   1.923  1.00  0.00    -0.381 OA
HETATM   59  H31 UNL     1      -2.909  -2.763   1.985  1.00  0.00     0.211 HD
ENDBRANCH  42  58
ENDBRANCH  41  42
ENDBRANCH  11  41
TORSDOF 8
