MODEL 1
REMARK VINA RESULT:     -12.7      0.000      0.000
REMARK  8 active torsions:
REMARK  status: ('A' for Active; 'I' for Inactive)
REMARK    1  A    between atoms: C5_7  and  C6_8 
REMARK    2  A    between atoms: C14_17  and  O2_18 
REMARK    3  A    between atoms: C15_19  and  C16_20 
REMARK    4  A    between atoms: C16_20  and  O4_22 
REMARK    5  A    between atoms: C17_23  and  O5_24 
REMARK    6  A    between atoms: C20_29  and  C21_30 
REMARK    7  A    between atoms: C21_30  and  C22_31 
REMARK    8  A    between atoms: C22_31  and  O8_46 
ROOT
HETATM    1  C1  UNL     1      25.673  -0.909  -1.358  1.00  0.00     0.059 A 
HETATM    2  C2  UNL     1      24.579  -0.416  -2.090  1.00  0.00     0.049 A 
HETATM    3  N1  UNL     1      24.038  -1.172  -3.070  1.00  0.00    -0.340 N 
HETATM    4  H1  UNL     1      23.293  -0.780  -3.646  1.00  0.00     0.167 HD
HETATM    5  C3  UNL     1      24.461  -2.443  -3.309  1.00  0.00     0.138 C 
HETATM    6  C4  UNL     1      24.031  -3.131  -4.565  1.00  0.00     0.078 C 
HETATM    7  C5  UNL     1      22.899  -2.753  -5.202  1.00  0.00     0.043 C 
HETATM    8  N2  UNL     1      24.898  -4.174  -5.061  1.00  0.00    -0.322 N 
HETATM    9  C19 UNL     1      25.837  -4.750  -4.152  1.00  0.00     0.245 C 
HETATM   10  O6  UNL     1      26.834  -5.385  -4.585  1.00  0.00    -0.271 OA
HETATM   11  C20 UNL     1      25.614  -4.494  -2.684  1.00  0.00     0.190 C 
HETATM   12  N5  UNL     1      25.428  -3.021  -2.508  1.00  0.00    -0.283 N 
HETATM   13  C34 UNL     1      26.118  -2.220  -1.619  1.00  0.00     0.262 C 
HETATM   14  O9  UNL     1      27.180  -2.621  -1.065  1.00  0.00    -0.267 OA
HETATM   15  C35 UNL     1      24.094   0.875  -1.852  1.00  0.00     0.030 A 
HETATM   16  C36 UNL     1      24.695   1.679  -0.881  1.00  0.00     0.002 A 
HETATM   17  C37 UNL     1      25.800   1.207  -0.163  1.00  0.00     0.001 A 
HETATM   18  C38 UNL     1      26.291  -0.081  -0.401  1.00  0.00     0.019 A 
HETATM   19  H17 UNL     1      24.976  -4.426  -6.073  1.00  0.00     0.169 HD
ENDROOT
BRANCH   7  20
HETATM   20  C6  UNL     1      22.417  -3.282  -6.535  1.00  0.00     0.183 C 
HETATM   21  O1  UNL     1      21.997  -2.148  -7.265  1.00  0.00    -0.372 OA
HETATM   22  C7  UNL     1      21.833  -2.475  -8.626  1.00  0.00     0.127 C 
HETATM   23  C8  UNL     1      21.467  -1.193  -9.386  1.00  0.00     0.040 C 
HETATM   24  C9  UNL     1      20.748  -3.581  -8.831  1.00  0.00     0.044 C 
HETATM   25  C10 UNL     1      21.258  -4.606  -9.864  1.00  0.00     0.017 C 
HETATM   26  C11 UNL     1      20.359  -4.307  -7.538  1.00  0.00    -0.031 C 
HETATM   27  C12 UNL     1      19.168  -5.090  -7.451  1.00  0.00    -0.020 C 
HETATM   28  C18 UNL     1      21.245  -4.253  -6.438  1.00  0.00     0.016 C 
HETATM   29  C13 UNL     1      18.132  -5.125  -8.556  1.00  0.00     0.052 C 
HETATM   30  C14 UNL     1      18.936  -5.867  -6.292  1.00  0.00     0.091 C 
HETATM   31  C15 UNL     1      19.897  -5.928  -5.270  1.00  0.00     0.104 C 
HETATM   32  C17 UNL     1      21.057  -5.128  -5.342  1.00  0.00     0.095 C 
BRANCH  30  33
HETATM   33  O2  UNL     1      17.766  -6.627  -6.147  1.00  0.00    -0.359 OA
HETATM   34  H14 UNL     1      17.149  -6.867  -6.912  1.00  0.00     0.217 HD
ENDBRANCH  30  33
BRANCH  31  35
HETATM   35  C16 UNL     1      19.685  -6.869  -4.145  1.00  0.00     0.181 C 
HETATM   36  O3  UNL     1      19.333  -8.058  -4.370  1.00  0.00    -0.646 OA
BRANCH  35  37
HETATM   37  O4  UNL     1      19.923  -6.458  -2.835  1.00  0.00    -0.772 OA
HETATM   38  H15 UNL     1      19.197  -6.517  -2.136  1.00  0.00     0.167 HD
ENDBRANCH  35  37
ENDBRANCH  31  35
BRANCH  32  39
HETATM   39  O5  UNL     1      22.020  -5.176  -4.329  1.00  0.00    -0.359 OA
HETATM   40  H16 UNL     1      22.551  -4.377  -4.016  1.00  0.00     0.217 HD
ENDBRANCH  32  39
ENDBRANCH   7  20
BRANCH  11  41
HETATM   41  C21 UNL     1      26.631  -5.211  -1.748  1.00  0.00     0.082 C 
BRANCH  41  42
HETATM   42  C22 UNL     1      26.082  -5.491  -0.317  1.00  0.00     0.133 C 
HETATM   43  C23 UNL     1      26.982  -4.813   0.798  1.00  0.00     0.347 A 
HETATM   44  N3  UNL     1      27.198  -5.858   1.808  1.00  0.00    -0.182 NA
HETATM   45  N4  UNL     1      26.413  -3.607   1.468  1.00  0.00     0.124 N 
HETATM   46  C24 UNL     1      26.808  -7.103   1.258  1.00  0.00     0.029 A 
HETATM   47  C33 UNL     1      26.736  -5.374   3.048  1.00  0.00     0.245 A 
HETATM   48  C25 UNL     1      26.216  -6.953   0.030  1.00  0.00     0.001 A 
HETATM   49  C28 UNL     1      26.939  -8.356   1.863  1.00  0.00     0.025 A 
HETATM   50  C26 UNL     1      25.683  -8.058  -0.646  1.00  0.00     0.012 A 
HETATM   51  C27 UNL     1      25.818  -9.333  -0.068  1.00  0.00     0.001 A 
HETATM   52  C29 UNL     1      26.448  -9.481   1.182  1.00  0.00     0.002 A 
HETATM   53  C30 UNL     1      26.288  -3.995   2.870  1.00  0.00     0.234 A 
HETATM   54  O7  UNL     1      26.632  -6.071   4.091  1.00  0.00    -0.276 OA
HETATM   55  C31 UNL     1      25.364  -3.237   3.800  1.00  0.00     0.054 A 
HETATM   56  C32 UNL     1      26.874  -2.976   3.830  1.00  0.00     0.054 A 
HETATM   57  H26 UNL     1      25.480  -3.332   1.095  1.00  0.00     0.319 HD
BRANCH  42  58
HETATM   58  O8  UNL     1      24.726  -5.124  -0.221  1.00  0.00    -0.381 OA
HETATM   59  H31 UNL     1      24.208  -5.668  -0.874  1.00  0.00     0.211 HD
ENDBRANCH  42  58
ENDBRANCH  41  42
ENDBRANCH  11  41
TORSDOF 8
ENDMDL
MODEL 2
REMARK VINA RESULT:     -11.8      1.955      2.885
REMARK  8 active torsions:
REMARK  status: ('A' for Active; 'I' for Inactive)
REMARK    1  A    between atoms: C5_7  and  C6_8 
REMARK    2  A    between atoms: C14_17  and  O2_18 
REMARK    3  A    between atoms: C15_19  and  C16_20 
REMARK    4  A    between atoms: C16_20  and  O4_22 
REMARK    5  A    between atoms: C17_23  and  O5_24 
REMARK    6  A    between atoms: C20_29  and  C21_30 
REMARK    7  A    between atoms: C21_30  and  C22_31 
REMARK    8  A    between atoms: C22_31  and  O8_46 
ROOT
HETATM    1  C1  UNL     1      25.853  -0.866  -1.363  1.00  0.00     0.059 A 
HETATM    2  C2  UNL     1      24.734  -0.394  -2.070  1.00  0.00     0.049 A 
HETATM    3  N1  UNL     1      24.122  -1.199  -2.965  1.00  0.00    -0.340 N 
HETATM    4  H1  UNL     1      23.358  -0.827  -3.528  1.00  0.00     0.167 HD
HETATM    5  C3  UNL     1      24.499  -2.496  -3.136  1.00  0.00     0.138 C 
HETATM    6  C4  UNL     1      23.985  -3.256  -4.315  1.00  0.00     0.078 C 
HETATM    7  C5  UNL     1      22.830  -2.890  -4.918  1.00  0.00     0.043 C 
HETATM    8  N2  UNL     1      24.797  -4.356  -4.781  1.00  0.00    -0.322 N 
HETATM    9  C19 UNL     1      25.768  -4.895  -3.882  1.00  0.00     0.245 C 
HETATM   10  O6  UNL     1      26.724  -5.588  -4.320  1.00  0.00    -0.271 OA
HETATM   11  C20 UNL     1      25.631  -4.532  -2.427  1.00  0.00     0.190 C 
HETATM   12  N5  UNL     1      25.492  -3.045  -2.346  1.00  0.00    -0.283 N 
HETATM   13  C34 UNL     1      26.250  -2.205  -1.553  1.00  0.00     0.262 C 
HETATM   14  O9  UNL     1      27.329  -2.597  -1.028  1.00  0.00    -0.267 OA
HETATM   15  C35 UNL     1      24.296   0.925  -1.900  1.00  0.00     0.030 A 
HETATM   16  C36 UNL     1      24.968   1.777  -1.021  1.00  0.00     0.002 A 
HETATM   17  C37 UNL     1      26.098   1.323  -0.330  1.00  0.00     0.001 A 
HETATM   18  C38 UNL     1      26.543   0.008  -0.501  1.00  0.00     0.019 A 
HETATM   19  H17 UNL     1      24.814  -4.680  -5.774  1.00  0.00     0.169 HD
ENDROOT
BRANCH   7  20
HETATM   20  C6  UNL     1      22.264  -3.496  -6.183  1.00  0.00     0.183 C 
HETATM   21  O1  UNL     1      23.378  -3.759  -7.012  1.00  0.00    -0.372 OA
HETATM   22  C7  UNL     1      23.010  -4.612  -8.070  1.00  0.00     0.127 C 
HETATM   23  C8  UNL     1      24.271  -4.938  -8.883  1.00  0.00     0.040 C 
HETATM   24  C9  UNL     1      21.907  -3.974  -8.974  1.00  0.00     0.044 C 
HETATM   25  C10 UNL     1      20.847  -5.043  -9.311  1.00  0.00     0.017 C 
HETATM   26  C11 UNL     1      21.224  -2.756  -8.343  1.00  0.00    -0.031 C 
HETATM   27  C12 UNL     1      20.454  -1.843  -9.124  1.00  0.00    -0.020 C 
HETATM   28  C18 UNL     1      21.305  -2.585  -6.941  1.00  0.00     0.016 C 
HETATM   29  C13 UNL     1      20.392  -1.913 -10.637  1.00  0.00     0.052 C 
HETATM   30  C14 UNL     1      19.714  -0.829  -8.472  1.00  0.00     0.091 C 
HETATM   31  C15 UNL     1      19.678  -0.762  -7.070  1.00  0.00     0.104 C 
HETATM   32  C17 UNL     1      20.467  -1.643  -6.300  1.00  0.00     0.095 C 
BRANCH  30  33
HETATM   33  O2  UNL     1      18.968   0.111  -9.199  1.00  0.00    -0.359 OA
HETATM   34  H14 UNL     1      18.376  -0.123  -9.986  1.00  0.00     0.217 HD
ENDBRANCH  30  33
BRANCH  31  35
HETATM   35  C16 UNL     1      18.774   0.218  -6.423  1.00  0.00     0.181 C 
HETATM   36  O3  UNL     1      19.233   1.062  -5.607  1.00  0.00    -0.646 OA
BRANCH  35  37
HETATM   37  O4  UNL     1      17.420   0.245  -6.752  1.00  0.00    -0.772 OA
HETATM   38  H15 UNL     1      17.107  -0.033  -7.670  1.00  0.00     0.167 HD
ENDBRANCH  35  37
ENDBRANCH  31  35
BRANCH  32  39
HETATM   39  O5  UNL     1      20.442  -1.586  -4.902  1.00  0.00    -0.359 OA
HETATM   40  H16 UNL     1      20.169  -2.357  -4.311  1.00  0.00     0.217 HD
ENDBRANCH  32  39
ENDBRANCH   7  20
BRANCH  11  41
HETATM   41  C21 UNL     1      26.677  -5.211  -1.496  1.00  0.00     0.082 C 
BRANCH  41  42
HETATM   42  C22 UNL     1      26.149  -5.504  -0.060  1.00  0.00     0.133 C 
HETATM   43  C23 UNL     1      27.058  -4.828   1.048  1.00  0.00     0.347 A 
HETATM   44  N3  UNL     1      27.294  -5.878   2.048  1.00  0.00    -0.182 NA
HETATM   45  N4  UNL     1      26.490  -3.631   1.733  1.00  0.00     0.124 N 
HETATM   46  C24 UNL     1      26.906  -7.122   1.495  1.00  0.00     0.029 A 
HETATM   47  C33 UNL     1      26.844  -5.406   3.297  1.00  0.00     0.245 A 
HETATM   48  C25 UNL     1      26.297  -6.968   0.275  1.00  0.00     0.001 A 
HETATM   49  C28 UNL     1      27.052  -8.379   2.089  1.00  0.00     0.025 A 
HETATM   50  C26 UNL     1      25.762  -8.072  -0.402  1.00  0.00     0.012 A 
HETATM   51  C27 UNL     1      25.913  -9.350   0.166  1.00  0.00     0.001 A 
HETATM   52  C29 UNL     1      26.560  -9.502   1.407  1.00  0.00     0.002 A 
HETATM   53  C30 UNL     1      26.385  -4.029   3.134  1.00  0.00     0.234 A 
HETATM   54  O7  UNL     1      26.758  -6.111   4.336  1.00  0.00    -0.276 OA
HETATM   55  C31 UNL     1      25.467  -3.283   4.081  1.00  0.00     0.054 A 
HETATM   56  C32 UNL     1      26.976  -3.013   4.093  1.00  0.00     0.054 A 
HETATM   57  H26 UNL     1      25.550  -3.359   1.374  1.00  0.00     0.319 HD
BRANCH  42  58
HETATM   58  O8  UNL     1      24.792  -5.148   0.055  1.00  0.00    -0.381 OA
HETATM   59  H31 UNL     1      24.510  -5.286   1.000  1.00  0.00     0.211 HD
ENDBRANCH  42  58
ENDBRANCH  41  42
ENDBRANCH  11  41
TORSDOF 8
ENDMDL
MODEL 3
REMARK VINA RESULT:     -11.7      2.031      3.965
REMARK  8 active torsions:
REMARK  status: ('A' for Active; 'I' for Inactive)
REMARK    1  A    between atoms: C5_7  and  C6_8 
REMARK    2  A    between atoms: C14_17  and  O2_18 
REMARK    3  A    between atoms: C15_19  and  C16_20 
REMARK    4  A    between atoms: C16_20  and  O4_22 
REMARK    5  A    between atoms: C17_23  and  O5_24 
REMARK    6  A    between atoms: C20_29  and  C21_30 
REMARK    7  A    between atoms: C21_30  and  C22_31 
REMARK    8  A    between atoms: C22_31  and  O8_46 
ROOT
HETATM    1  C1  UNL     1      25.889  -0.894  -1.028  1.00  0.00     0.059 A 
HETATM    2  C2  UNL     1      24.802  -0.438  -1.794  1.00  0.00     0.049 A 
HETATM    3  N1  UNL     1      24.289  -1.231  -2.759  1.00  0.00    -0.340 N 
HETATM    4  H1  UNL     1      23.550  -0.868  -3.360  1.00  0.00     0.167 HD
HETATM    5  C3  UNL     1      24.732  -2.503  -2.951  1.00  0.00     0.138 C 
HETATM    6  C4  UNL     1      24.334  -3.235  -4.192  1.00  0.00     0.078 C 
HETATM    7  C5  UNL     1      23.209  -2.893  -4.860  1.00  0.00     0.043 C 
HETATM    8  N2  UNL     1      25.223  -4.282  -4.640  1.00  0.00    -0.322 N 
HETATM    9  C19 UNL     1      26.152  -4.817  -3.697  1.00  0.00     0.245 C 
HETATM   10  O6  UNL     1      27.165  -5.451  -4.093  1.00  0.00    -0.271 OA
HETATM   11  C20 UNL     1      25.900  -4.519  -2.242  1.00  0.00     0.190 C 
HETATM   12  N5  UNL     1      25.692  -3.043  -2.116  1.00  0.00    -0.283 N 
HETATM   13  C34 UNL     1      26.356  -2.206  -1.240  1.00  0.00     0.262 C 
HETATM   14  O9  UNL     1      27.413  -2.575  -0.656  1.00  0.00    -0.267 OA
HETATM   15  C35 UNL     1      24.297   0.853  -1.605  1.00  0.00     0.030 A 
HETATM   16  C36 UNL     1      24.870   1.695  -0.649  1.00  0.00     0.002 A 
HETATM   17  C37 UNL     1      25.968   1.260   0.102  1.00  0.00     0.001 A 
HETATM   18  C38 UNL     1      26.480  -0.028  -0.087  1.00  0.00     0.019 A 
HETATM   19  H17 UNL     1      25.322  -4.565  -5.642  1.00  0.00     0.169 HD
ENDROOT
BRANCH   7  20
HETATM   20  C6  UNL     1      22.757  -3.470  -6.184  1.00  0.00     0.183 C 
HETATM   21  O1  UNL     1      22.643  -4.863  -5.973  1.00  0.00    -0.372 OA
HETATM   22  C7  UNL     1      21.926  -5.460  -7.029  1.00  0.00     0.127 C 
HETATM   23  C8  UNL     1      21.753  -6.950  -6.706  1.00  0.00     0.040 C 
HETATM   24  C9  UNL     1      22.642  -5.260  -8.403  1.00  0.00     0.044 C 
HETATM   25  C10 UNL     1      21.593  -4.890  -9.472  1.00  0.00     0.017 C 
HETATM   26  C11 UNL     1      23.742  -4.194  -8.374  1.00  0.00    -0.031 C 
HETATM   27  C12 UNL     1      24.725  -4.106  -9.406  1.00  0.00    -0.020 C 
HETATM   28  C18 UNL     1      23.729  -3.235  -7.335  1.00  0.00     0.016 C 
HETATM   29  C13 UNL     1      24.854  -5.146 -10.501  1.00  0.00     0.052 C 
HETATM   30  C14 UNL     1      25.619  -3.010  -9.417  1.00  0.00     0.091 C 
HETATM   31  C15 UNL     1      25.498  -1.981  -8.469  1.00  0.00     0.104 C 
HETATM   32  C17 UNL     1      24.549  -2.086  -7.430  1.00  0.00     0.095 C 
BRANCH  30  33
HETATM   33  O2  UNL     1      26.621  -2.897 -10.392  1.00  0.00    -0.359 OA
HETATM   34  H14 UNL     1      27.566  -2.588 -10.198  1.00  0.00     0.217 HD
ENDBRANCH  30  33
BRANCH  31  35
HETATM   35  C16 UNL     1      26.353  -0.779  -8.605  1.00  0.00     0.181 C 
HETATM   36  O3  UNL     1      26.370  -0.132  -9.687  1.00  0.00    -0.646 OA
BRANCH  35  37
HETATM   37  O4  UNL     1      27.105  -0.328  -7.522  1.00  0.00    -0.772 OA
HETATM   38  H15 UNL     1      27.907  -0.848  -7.199  1.00  0.00     0.167 HD
ENDBRANCH  35  37
ENDBRANCH  31  35
BRANCH  32  39
HETATM   39  O5  UNL     1      24.420  -1.070  -6.477  1.00  0.00    -0.359 OA
HETATM   40  H16 UNL     1      25.048  -0.283  -6.404  1.00  0.00     0.217 HD
ENDBRANCH  32  39
ENDBRANCH   7  20
BRANCH  11  41
HETATM   41  C21 UNL     1      26.909  -5.192  -1.267  1.00  0.00     0.082 C 
BRANCH  41  42
HETATM   42  C22 UNL     1      26.312  -5.513   0.137  1.00  0.00     0.133 C 
HETATM   43  C23 UNL     1      27.214  -4.933   1.303  1.00  0.00     0.347 A 
HETATM   44  N3  UNL     1      27.356  -6.034   2.266  1.00  0.00    -0.182 NA
HETATM   45  N4  UNL     1      26.685  -3.735   2.018  1.00  0.00     0.124 N 
HETATM   46  C24 UNL     1      26.923  -7.231   1.647  1.00  0.00     0.029 A 
HETATM   47  C33 UNL     1      26.885  -5.588   3.517  1.00  0.00     0.245 A 
HETATM   48  C25 UNL     1      26.369  -6.995   0.415  1.00  0.00     0.001 A 
HETATM   49  C28 UNL     1      26.979  -8.517   2.193  1.00  0.00     0.025 A 
HETATM   50  C26 UNL     1      25.802  -8.040  -0.327  1.00  0.00     0.012 A 
HETATM   51  C27 UNL     1      25.863  -9.346   0.192  1.00  0.00     0.001 A 
HETATM   52  C29 UNL     1      26.454  -9.583   1.447  1.00  0.00     0.002 A 
HETATM   53  C30 UNL     1      26.506  -4.183   3.396  1.00  0.00     0.234 A 
HETATM   54  O7  UNL     1      26.722  -6.328   4.522  1.00  0.00    -0.276 OA
HETATM   55  C31 UNL     1      25.595  -3.426   4.341  1.00  0.00     0.054 A 
HETATM   56  C32 UNL     1      27.114  -3.239   4.418  1.00  0.00     0.054 A 
HETATM   57  H26 UNL     1      25.775  -3.398   1.638  1.00  0.00     0.319 HD
BRANCH  42  58
HETATM   58  O8  UNL     1      24.973  -5.088   0.218  1.00  0.00    -0.381 OA
HETATM   59  H31 UNL     1      24.896  -4.206  -0.238  1.00  0.00     0.211 HD
ENDBRANCH  42  58
ENDBRANCH  41  42
ENDBRANCH  11  41
TORSDOF 8
ENDMDL
MODEL 4
REMARK VINA RESULT:     -11.3      2.863      4.957
REMARK  8 active torsions:
REMARK  status: ('A' for Active; 'I' for Inactive)
REMARK    1  A    between atoms: C5_7  and  C6_8 
REMARK    2  A    between atoms: C14_17  and  O2_18 
REMARK    3  A    between atoms: C15_19  and  C16_20 
REMARK    4  A    between atoms: C16_20  and  O4_22 
REMARK    5  A    between atoms: C17_23  and  O5_24 
REMARK    6  A    between atoms: C20_29  and  C21_30 
REMARK    7  A    between atoms: C21_30  and  C22_31 
REMARK    8  A    between atoms: C22_31  and  O8_46 
ROOT
HETATM    1  C1  UNL     1      26.734  -0.130  -0.241  1.00  0.00     0.059 A 
HETATM    2  C2  UNL     1      25.782   0.601  -0.972  1.00  0.00     0.049 A 
HETATM    3  N1  UNL     1      25.260   0.073  -2.100  1.00  0.00    -0.340 N 
HETATM    4  H1  UNL     1      24.626   0.637  -2.666  1.00  0.00     0.167 HD
HETATM    5  C3  UNL     1      25.556  -1.193  -2.502  1.00  0.00     0.138 C 
HETATM    6  C4  UNL     1      25.178  -1.629  -3.880  1.00  0.00     0.078 C 
HETATM    7  C5  UNL     1      24.167  -1.020  -4.540  1.00  0.00     0.043 C 
HETATM    8  N2  UNL     1      25.965  -2.691  -4.463  1.00  0.00    -0.322 N 
HETATM    9  C19 UNL     1      26.736  -3.509  -3.581  1.00  0.00     0.245 C 
HETATM   10  O6  UNL     1      27.692  -4.197  -4.027  1.00  0.00    -0.271 OA
HETATM   11  C20 UNL     1      26.398  -3.445  -2.115  1.00  0.00     0.190 C 
HETATM   12  N5  UNL     1      26.365  -2.002  -1.725  1.00  0.00    -0.283 N 
HETATM   13  C34 UNL     1      27.050  -1.435  -0.668  1.00  0.00     0.262 C 
HETATM   14  O9  UNL     1      27.998  -2.045  -0.099  1.00  0.00    -0.267 OA
HETATM   15  C35 UNL     1      25.427   1.896  -0.575  1.00  0.00     0.030 A 
HETATM   16  C36 UNL     1      26.016   2.465   0.557  1.00  0.00     0.002 A 
HETATM   17  C37 UNL     1      26.982   1.755   1.278  1.00  0.00     0.001 A 
HETATM   18  C38 UNL     1      27.344   0.463   0.882  1.00  0.00     0.019 A 
HETATM   19  H17 UNL     1      26.115  -2.800  -5.491  1.00  0.00     0.169 HD
ENDROOT
BRANCH   7  20
HETATM   20  C6  UNL     1      23.763  -1.282  -5.974  1.00  0.00     0.183 C 
HETATM   21  O1  UNL     1      23.706  -2.688  -6.103  1.00  0.00    -0.372 OA
HETATM   22  C7  UNL     1      23.033  -3.044  -7.288  1.00  0.00     0.127 C 
HETATM   23  C8  UNL     1      22.919  -4.574  -7.333  1.00  0.00     0.040 C 
HETATM   24  C9  UNL     1      23.763  -2.496  -8.557  1.00  0.00     0.044 C 
HETATM   25  C10 UNL     1      22.717  -1.923  -9.535  1.00  0.00     0.017 C 
HETATM   26  C11 UNL     1      24.815  -1.427  -8.247  1.00  0.00    -0.031 C 
HETATM   27  C12 UNL     1      25.811  -1.059  -9.202  1.00  0.00    -0.020 C 
HETATM   28  C18 UNL     1      24.743  -0.744  -7.011  1.00  0.00     0.016 C 
HETATM   29  C13 UNL     1      26.003  -1.802 -10.508  1.00  0.00     0.052 C 
HETATM   30  C14 UNL     1      26.657   0.042  -8.929  1.00  0.00     0.091 C 
HETATM   31  C15 UNL     1      26.475   0.810  -7.768  1.00  0.00     0.104 C 
HETATM   32  C17 UNL     1      25.514   0.425  -6.809  1.00  0.00     0.095 C 
BRANCH  30  33
HETATM   33  O2  UNL     1      27.670   0.421  -9.822  1.00  0.00    -0.359 OA
HETATM   34  H14 UNL     1      27.499   0.861 -10.717  1.00  0.00     0.217 HD
ENDBRANCH  30  33
BRANCH  31  35
HETATM   35  C16 UNL     1      27.280   2.042  -7.592  1.00  0.00     0.181 C 
HETATM   36  O3  UNL     1      27.211   2.971  -8.442  1.00  0.00    -0.646 OA
BRANCH  35  37
HETATM   37  O4  UNL     1      28.078   2.201  -6.462  1.00  0.00    -0.772 OA
HETATM   38  H15 UNL     1      27.733   1.952  -5.547  1.00  0.00     0.167 HD
ENDBRANCH  35  37
ENDBRANCH  31  35
BRANCH  32  39
HETATM   39  O5  UNL     1      25.325   1.180  -5.647  1.00  0.00    -0.359 OA
HETATM   40  H16 UNL     1      26.019   1.281  -4.921  1.00  0.00     0.217 HD
ENDBRANCH  32  39
ENDBRANCH   7  20
BRANCH  11  41
HETATM   41  C21 UNL     1      27.227  -4.415  -1.224  1.00  0.00     0.082 C 
BRANCH  41  42
HETATM   42  C22 UNL     1      26.494  -4.860   0.077  1.00  0.00     0.133 C 
HETATM   43  C23 UNL     1      27.315  -4.468   1.375  1.00  0.00     0.347 A 
HETATM   44  N3  UNL     1      27.319  -5.677   2.209  1.00  0.00    -0.182 NA
HETATM   45  N4  UNL     1      26.781  -3.331   2.180  1.00  0.00     0.124 N 
HETATM   46  C24 UNL     1      26.887  -6.770   1.419  1.00  0.00     0.029 A 
HETATM   47  C33 UNL     1      26.760  -5.351   3.460  1.00  0.00     0.245 A 
HETATM   48  C25 UNL     1      26.457  -6.365   0.181  1.00  0.00     0.001 A 
HETATM   49  C28 UNL     1      26.835  -8.111   1.812  1.00  0.00     0.025 A 
HETATM   50  C26 UNL     1      25.910  -7.284  -0.723  1.00  0.00     0.012 A 
HETATM   51  C27 UNL     1      25.864  -8.642  -0.359  1.00  0.00     0.001 A 
HETATM   52  C29 UNL     1      26.329  -9.053   0.904  1.00  0.00     0.002 A 
HETATM   53  C30 UNL     1      26.460  -3.922   3.476  1.00  0.00     0.234 A 
HETATM   54  O7  UNL     1      26.475  -6.190   4.354  1.00  0.00    -0.276 OA
HETATM   55  C31 UNL     1      25.504  -3.227   4.425  1.00  0.00     0.054 A 
HETATM   56  C32 UNL     1      27.018  -3.137   4.649  1.00  0.00     0.054 A 
HETATM   57  H26 UNL     1      25.925  -2.902   1.768  1.00  0.00     0.319 HD
BRANCH  42  58
HETATM   58  O8  UNL     1      25.174  -4.371   0.098  1.00  0.00    -0.381 OA
HETATM   59  H31 UNL     1      24.723  -4.720   0.914  1.00  0.00     0.211 HD
ENDBRANCH  42  58
ENDBRANCH  41  42
ENDBRANCH  11  41
TORSDOF 8
ENDMDL
MODEL 5
REMARK VINA RESULT:     -11.2     12.867     15.278
REMARK  8 active torsions:
REMARK  status: ('A' for Active; 'I' for Inactive)
REMARK    1  A    between atoms: C5_7  and  C6_8 
REMARK    2  A    between atoms: C14_17  and  O2_18 
REMARK    3  A    between atoms: C15_19  and  C16_20 
REMARK    4  A    between atoms: C16_20  and  O4_22 
REMARK    5  A    between atoms: C17_23  and  O5_24 
REMARK    6  A    between atoms: C20_29  and  C21_30 
REMARK    7  A    between atoms: C21_30  and  C22_31 
REMARK    8  A    between atoms: C22_31  and  O8_46 
ROOT
HETATM    1  C1  UNL     1      20.832   8.652  -3.270  1.00  0.00     0.059 A 
HETATM    2  C2  UNL     1      20.656   9.499  -4.377  1.00  0.00     0.049 A 
HETATM    3  N1  UNL     1      19.555   9.367  -5.149  1.00  0.00    -0.340 N 
HETATM    4  H1  UNL     1      19.468   9.933  -5.992  1.00  0.00     0.167 HD
HETATM    5  C3  UNL     1      18.557   8.498  -4.828  1.00  0.00     0.138 C 
HETATM    6  C4  UNL     1      17.504   8.191  -5.844  1.00  0.00     0.078 C 
HETATM    7  C5  UNL     1      17.231   9.068  -6.836  1.00  0.00     0.043 C 
HETATM    8  N2  UNL     1      16.838   6.915  -5.720  1.00  0.00    -0.322 N 
HETATM    9  C19 UNL     1      16.914   6.243  -4.462  1.00  0.00     0.245 C 
HETATM   10  O6  UNL     1      16.676   5.009  -4.386  1.00  0.00    -0.271 OA
HETATM   11  C20 UNL     1      17.358   7.057  -3.276  1.00  0.00     0.190 C 
HETATM   12  N5  UNL     1      18.619   7.761  -3.661  1.00  0.00    -0.283 N 
HETATM   13  C34 UNL     1      19.804   7.744  -2.949  1.00  0.00     0.262 C 
HETATM   14  O9  UNL     1      20.010   6.890  -2.042  1.00  0.00    -0.267 OA
HETATM   15  C35 UNL     1      21.646  10.427  -4.722  1.00  0.00     0.030 A 
HETATM   16  C36 UNL     1      22.812  10.519  -3.960  1.00  0.00     0.002 A 
HETATM   17  C37 UNL     1      23.008   9.664  -2.869  1.00  0.00     0.001 A 
HETATM   18  C38 UNL     1      22.025   8.731  -2.524  1.00  0.00     0.019 A 
HETATM   19  H17 UNL     1      16.433   6.396  -6.532  1.00  0.00     0.169 HD
ENDROOT
BRANCH   7  20
HETATM   20  C6  UNL     1      16.279   8.829  -7.988  1.00  0.00     0.183 C 
HETATM   21  O1  UNL     1      16.527   7.507  -8.420  1.00  0.00    -0.372 OA
HETATM   22  C7  UNL     1      15.490   7.065  -9.264  1.00  0.00     0.127 C 
HETATM   23  C8  UNL     1      15.761   5.599  -9.629  1.00  0.00     0.040 C 
HETATM   24  C9  UNL     1      15.368   7.950 -10.546  1.00  0.00     0.044 C 
HETATM   25  C10 UNL     1      13.878   8.232 -10.828  1.00  0.00     0.017 C 
HETATM   26  C11 UNL     1      16.132   9.275 -10.452  1.00  0.00    -0.031 C 
HETATM   27  C12 UNL     1      16.428  10.051 -11.615  1.00  0.00    -0.020 C 
HETATM   28  C18 UNL     1      16.481   9.767  -9.174  1.00  0.00     0.016 C 
HETATM   29  C13 UNL     1      16.162   9.549 -13.020  1.00  0.00     0.052 C 
HETATM   30  C14 UNL     1      16.991  11.339 -11.461  1.00  0.00     0.091 C 
HETATM   31  C15 UNL     1      17.191  11.881 -10.180  1.00  0.00     0.104 C 
HETATM   32  C17 UNL     1      16.930  11.101  -9.034  1.00  0.00     0.095 C 
BRANCH  30  33
HETATM   33  O2  UNL     1      17.328  12.125 -12.572  1.00  0.00    -0.359 OA
HETATM   34  H14 UNL     1      17.144  13.117 -12.639  1.00  0.00     0.217 HD
ENDBRANCH  30  33
BRANCH  31  35
HETATM   35  C16 UNL     1      17.641  13.288 -10.062  1.00  0.00     0.181 C 
HETATM   36  O3  UNL     1      18.573  13.720 -10.794  1.00  0.00    -0.646 OA
BRANCH  35  37
HETATM   37  O4  UNL     1      17.003  14.155  -9.178  1.00  0.00    -0.772 OA
HETATM   38  H15 UNL     1      17.485  14.960  -8.807  1.00  0.00     0.167 HD
ENDBRANCH  35  37
ENDBRANCH  31  35
BRANCH  32  39
HETATM   39  O5  UNL     1      17.128  11.629  -7.753  1.00  0.00    -0.359 OA
HETATM   40  H16 UNL     1      17.052  11.089  -6.904  1.00  0.00     0.217 HD
ENDBRANCH  32  39
ENDBRANCH   7  20
BRANCH  11  41
HETATM   41  C21 UNL     1      17.347   6.281  -1.926  1.00  0.00     0.082 C 
BRANCH  41  42
HETATM   42  C22 UNL     1      16.028   6.446  -1.113  1.00  0.00     0.133 C 
HETATM   43  C23 UNL     1      16.316   6.696   0.425  1.00  0.00     0.347 A 
HETATM   44  N3  UNL     1      15.414   5.782   1.140  1.00  0.00    -0.182 NA
HETATM   45  N4  UNL     1      16.090   8.083   0.925  1.00  0.00     0.124 N 
HETATM   46  C24 UNL     1      14.897   4.844   0.214  1.00  0.00     0.029 A 
HETATM   47  C33 UNL     1      14.609   6.548   2.007  1.00  0.00     0.245 A 
HETATM   48  C25 UNL     1      15.259   5.148  -1.073  1.00  0.00     0.001 A 
HETATM   49  C28 UNL     1      14.073   3.753   0.508  1.00  0.00     0.025 A 
HETATM   50  C26 UNL     1      14.779   4.390  -2.149  1.00  0.00     0.012 A 
HETATM   51  C27 UNL     1      13.964   3.276  -1.879  1.00  0.00     0.001 A 
HETATM   52  C29 UNL     1      13.616   2.958  -0.553  1.00  0.00     0.002 A 
HETATM   53  C30 UNL     1      15.029   7.943   1.919  1.00  0.00     0.234 A 
HETATM   54  O7  UNL     1      13.628   6.095   2.652  1.00  0.00    -0.276 OA
HETATM   55  C31 UNL     1      14.208   9.144   2.345  1.00  0.00     0.054 A 
HETATM   56  C32 UNL     1      15.344   8.629   3.235  1.00  0.00     0.054 A 
HETATM   57  H26 UNL     1      15.788   8.745   0.180  1.00  0.00     0.319 HD
BRANCH  42  58
HETATM   58  O8  UNL     1      15.210   7.440  -1.685  1.00  0.00    -0.381 OA
HETATM   59  H31 UNL     1      14.394   7.002  -2.050  1.00  0.00     0.211 HD
ENDBRANCH  42  58
ENDBRANCH  41  42
ENDBRANCH  11  41
TORSDOF 8
ENDMDL
MODEL 6
REMARK VINA RESULT:     -11.1     16.774     21.292
REMARK  8 active torsions:
REMARK  status: ('A' for Active; 'I' for Inactive)
REMARK    1  A    between atoms: C5_7  and  C6_8 
REMARK    2  A    between atoms: C14_17  and  O2_18 
REMARK    3  A    between atoms: C15_19  and  C16_20 
REMARK    4  A    between atoms: C16_20  and  O4_22 
REMARK    5  A    between atoms: C17_23  and  O5_24 
REMARK    6  A    between atoms: C20_29  and  C21_30 
REMARK    7  A    between atoms: C21_30  and  C22_31 
REMARK    8  A    between atoms: C22_31  and  O8_46 
ROOT
HETATM    1  C1  UNL     1      13.994   9.379   4.008  1.00  0.00     0.059 A 
HETATM    2  C2  UNL     1      15.162   8.603   4.112  1.00  0.00     0.049 A 
HETATM    3  N1  UNL     1      15.927   8.696   5.222  1.00  0.00    -0.340 N 
HETATM    4  H1  UNL     1      16.810   8.188   5.261  1.00  0.00     0.167 HD
HETATM    5  C3  UNL     1      15.549   9.451   6.289  1.00  0.00     0.138 C 
HETATM    6  C4  UNL     1      16.545   9.740   7.366  1.00  0.00     0.078 C 
HETATM    7  C5  UNL     1      17.600   8.918   7.565  1.00  0.00     0.043 C 
HETATM    8  N2  UNL     1      16.332  10.942   8.138  1.00  0.00    -0.322 N 
HETATM    9  C19 UNL     1      15.029  11.525   8.119  1.00  0.00     0.245 C 
HETATM   10  O6  UNL     1      14.864  12.726   8.461  1.00  0.00    -0.271 OA
HETATM   11  C20 UNL     1      13.902  10.668   7.606  1.00  0.00     0.190 C 
HETATM   12  N5  UNL     1      14.331  10.104   6.289  1.00  0.00    -0.283 N 
HETATM   13  C34 UNL     1      13.614  10.171   5.110  1.00  0.00     0.262 C 
HETATM   14  O9  UNL     1      12.646  10.970   4.976  1.00  0.00    -0.267 OA
HETATM   15  C35 UNL     1      15.567   7.790   3.047  1.00  0.00     0.030 A 
HETATM   16  C36 UNL     1      14.809   7.743   1.876  1.00  0.00     0.002 A 
HETATM   17  C37 UNL     1      13.657   8.529   1.753  1.00  0.00     0.001 A 
HETATM   18  C38 UNL     1      13.251   9.347   2.812  1.00  0.00     0.019 A 
HETATM   19  H17 UNL     1      17.106  11.483   8.587  1.00  0.00     0.169 HD
ENDROOT
BRANCH   7  20
HETATM   20  C6  UNL     1      18.736   9.158   8.535  1.00  0.00     0.183 C 
HETATM   21  O1  UNL     1      18.142   9.723   9.686  1.00  0.00    -0.372 OA
HETATM   22  C7  UNL     1      19.043   9.689  10.768  1.00  0.00     0.127 C 
HETATM   23  C8  UNL     1      18.319  10.229  12.010  1.00  0.00     0.040 C 
HETATM   24  C9  UNL     1      20.339  10.510  10.471  1.00  0.00     0.044 C 
HETATM   25  C10 UNL     1      21.566   9.712  10.957  1.00  0.00     0.017 C 
HETATM   26  C11 UNL     1      20.514  10.868   8.991  1.00  0.00    -0.031 C 
HETATM   27  C12 UNL     1      21.425  11.883   8.571  1.00  0.00    -0.020 C 
HETATM   28  C18 UNL     1      19.805  10.118   8.024  1.00  0.00     0.016 C 
HETATM   29  C13 UNL     1      22.152  12.783   9.550  1.00  0.00     0.052 C 
HETATM   30  C14 UNL     1      21.668  12.066   7.189  1.00  0.00     0.091 C 
HETATM   31  C15 UNL     1      21.076  11.213   6.243  1.00  0.00     0.104 C 
HETATM   32  C17 UNL     1      20.150  10.233   6.657  1.00  0.00     0.095 C 
BRANCH  30  33
HETATM   33  O2  UNL     1      22.530  13.071   6.727  1.00  0.00    -0.359 OA
HETATM   34  H14 UNL     1      23.416  12.890   6.273  1.00  0.00     0.217 HD
ENDBRANCH  30  33
BRANCH  31  35
HETATM   35  C16 UNL     1      21.472  11.339   4.821  1.00  0.00     0.181 C 
HETATM   36  O3  UNL     1      22.668  11.141   4.475  1.00  0.00    -0.646 OA
BRANCH  35  37
HETATM   37  O4  UNL     1      20.514  11.629   3.851  1.00  0.00    -0.772 OA
HETATM   38  H15 UNL     1      19.901  10.908   3.500  1.00  0.00     0.167 HD
ENDBRANCH  35  37
ENDBRANCH  31  35
BRANCH  32  39
HETATM   39  O5  UNL     1      19.551   9.379   5.725  1.00  0.00    -0.359 OA
HETATM   40  H16 UNL     1      20.063   8.728   5.147  1.00  0.00     0.217 HD
ENDBRANCH  32  39
ENDBRANCH   7  20
BRANCH  11  41
HETATM   41  C21 UNL     1      12.500  11.340   7.681  1.00  0.00     0.082 C 
BRANCH  41  42
HETATM   42  C22 UNL     1      11.368  10.388   8.171  1.00  0.00     0.133 C 
HETATM   43  C23 UNL     1      11.862   8.883   8.248  1.00  0.00     0.347 A 
HETATM   44  N3  UNL     1      10.808   8.097   7.591  1.00  0.00    -0.182 NA
HETATM   45  N4  UNL     1      12.094   8.330   9.613  1.00  0.00     0.124 N 
HETATM   46  C24 UNL     1       9.957   8.983   6.888  1.00  0.00     0.029 A 
HETATM   47  C33 UNL     1      10.345   7.132   8.506  1.00  0.00     0.245 A 
HETATM   48  C25 UNL     1      10.266  10.295   7.143  1.00  0.00     0.001 A 
HETATM   49  C28 UNL     1       8.887   8.629   6.062  1.00  0.00     0.025 A 
HETATM   50  C26 UNL     1       9.488  11.331   6.611  1.00  0.00     0.012 A 
HETATM   51  C27 UNL     1       8.417  11.001   5.761  1.00  0.00     0.001 A 
HETATM   52  C29 UNL     1       8.120   9.652   5.485  1.00  0.00     0.002 A 
HETATM   53  C30 UNL     1      11.137   7.233   9.729  1.00  0.00     0.234 A 
HETATM   54  O7  UNL     1       9.341   6.396   8.318  1.00  0.00    -0.276 OA
HETATM   55  C31 UNL     1      10.742   6.694  11.088  1.00  0.00     0.054 A 
HETATM   56  C32 UNL     1      11.761   5.942  10.226  1.00  0.00     0.054 A 
HETATM   57  H26 UNL     1      11.925   9.024  10.372  1.00  0.00     0.319 HD
BRANCH  42  58
HETATM   58  O8  UNL     1      10.821  10.845   9.384  1.00  0.00    -0.381 OA
HETATM   59  H31 UNL     1      10.449  11.757   9.236  1.00  0.00     0.211 HD
ENDBRANCH  42  58
ENDBRANCH  41  42
ENDBRANCH  11  41
TORSDOF 8
ENDMDL
MODEL 7
REMARK VINA RESULT:     -11.1     17.410     21.006
REMARK  8 active torsions:
REMARK  status: ('A' for Active; 'I' for Inactive)
REMARK    1  A    between atoms: C5_7  and  C6_8 
REMARK    2  A    between atoms: C14_17  and  O2_18 
REMARK    3  A    between atoms: C15_19  and  C16_20 
REMARK    4  A    between atoms: C16_20  and  O4_22 
REMARK    5  A    between atoms: C17_23  and  O5_24 
REMARK    6  A    between atoms: C20_29  and  C21_30 
REMARK    7  A    between atoms: C21_30  and  C22_31 
REMARK    8  A    between atoms: C22_31  and  O8_46 
ROOT
HETATM    1  C1  UNL     1      13.585   9.567   5.096  1.00  0.00     0.059 A 
HETATM    2  C2  UNL     1      14.860   9.055   4.801  1.00  0.00     0.049 A 
HETATM    3  N1  UNL     1      15.788   8.975   5.780  1.00  0.00    -0.340 N 
HETATM    4  H1  UNL     1      16.733   8.673   5.544  1.00  0.00     0.167 HD
HETATM    5  C3  UNL     1      15.495   9.288   7.071  1.00  0.00     0.138 C 
HETATM    6  C4  UNL     1      16.609   9.448   8.054  1.00  0.00     0.078 C 
HETATM    7  C5  UNL     1      17.800   8.842   7.846  1.00  0.00     0.043 C 
HETATM    8  N2  UNL     1      16.352  10.300   9.192  1.00  0.00    -0.322 N 
HETATM    9  C19 UNL     1      14.990  10.579   9.521  1.00  0.00     0.245 C 
HETATM   10  O6  UNL     1      14.702  11.566  10.248  1.00  0.00    -0.271 OA
HETATM   11  C20 UNL     1      13.940   9.696   8.900  1.00  0.00     0.190 C 
HETATM   12  N5  UNL     1      14.208   9.645   7.430  1.00  0.00    -0.283 N 
HETATM   13  C34 UNL     1      13.289   9.904   6.432  1.00  0.00     0.262 C 
HETATM   14  O9  UNL     1      12.198  10.489   6.682  1.00  0.00    -0.267 OA
HETATM   15  C35 UNL     1      15.190   8.693   3.490  1.00  0.00     0.030 A 
HETATM   16  C36 UNL     1      14.250   8.835   2.468  1.00  0.00     0.002 A 
HETATM   17  C37 UNL     1      12.985   9.367   2.746  1.00  0.00     0.001 A 
HETATM   18  C38 UNL     1      12.652   9.735   4.054  1.00  0.00     0.019 A 
HETATM   19  H17 UNL     1      17.098  10.834   9.693  1.00  0.00     0.169 HD
ENDROOT
BRANCH   7  20
HETATM   20  C6  UNL     1      19.040   9.017   8.695  1.00  0.00     0.183 C 
HETATM   21  O1  UNL     1      18.590   9.557   9.921  1.00  0.00    -0.372 OA
HETATM   22  C7  UNL     1      19.600   9.461  10.899  1.00  0.00     0.127 C 
HETATM   23  C8  UNL     1      19.030   9.975  12.228  1.00  0.00     0.040 C 
HETATM   24  C9  UNL     1      20.881  10.256  10.490  1.00  0.00     0.044 C 
HETATM   25  C10 UNL     1      22.128   9.409  10.815  1.00  0.00     0.017 C 
HETATM   26  C11 UNL     1      20.907  10.662   9.013  1.00  0.00    -0.031 C 
HETATM   27  C12 UNL     1      21.799  11.667   8.530  1.00  0.00    -0.020 C 
HETATM   28  C18 UNL     1      20.077   9.966   8.104  1.00  0.00     0.016 C 
HETATM   29  C13 UNL     1      22.654  12.512   9.453  1.00  0.00     0.052 C 
HETATM   30  C14 UNL     1      21.898  11.892   7.137  1.00  0.00     0.091 C 
HETATM   31  C15 UNL     1      21.183  11.089   6.233  1.00  0.00     0.104 C 
HETATM   32  C17 UNL     1      20.277  10.120   6.712  1.00  0.00     0.095 C 
BRANCH  30  33
HETATM   33  O2  UNL     1      22.736  12.889   6.617  1.00  0.00    -0.359 OA
HETATM   34  H14 UNL     1      23.341  13.471   7.183  1.00  0.00     0.217 HD
ENDBRANCH  30  33
BRANCH  31  35
HETATM   35  C16 UNL     1      21.428  11.255   4.781  1.00  0.00     0.181 C 
HETATM   36  O3  UNL     1      22.572  11.028   4.300  1.00  0.00    -0.646 OA
BRANCH  35  37
HETATM   37  O4  UNL     1      20.384  11.615   3.931  1.00  0.00    -0.772 OA
HETATM   38  H15 UNL     1      19.740  12.348   4.187  1.00  0.00     0.167 HD
ENDBRANCH  35  37
ENDBRANCH  31  35
BRANCH  32  39
HETATM   39  O5  UNL     1      19.557   9.315   5.822  1.00  0.00    -0.359 OA
HETATM   40  H16 UNL     1      19.744   8.335   5.671  1.00  0.00     0.217 HD
ENDBRANCH  32  39
ENDBRANCH   7  20
BRANCH  11  41
HETATM   41  C21 UNL     1      12.486  10.011   9.358  1.00  0.00     0.082 C 
BRANCH  41  42
HETATM   42  C22 UNL     1      11.764   8.808  10.037  1.00  0.00     0.133 C 
HETATM   43  C23 UNL     1      12.736   7.569  10.220  1.00  0.00     0.347 A 
HETATM   44  N3  UNL     1      11.975   6.407   9.739  1.00  0.00    -0.182 NA
HETATM   45  N4  UNL     1      13.206   7.294  11.608  1.00  0.00     0.124 N 
HETATM   46  C24 UNL     1      10.843   6.874   9.029  1.00  0.00     0.029 A 
HETATM   47  C33 UNL     1      11.907   5.464  10.782  1.00  0.00     0.245 A 
HETATM   48  C25 UNL     1      10.707   8.236   9.124  1.00  0.00     0.001 A 
HETATM   49  C28 UNL     1       9.913   6.090   8.338  1.00  0.00     0.025 A 
HETATM   50  C26 UNL     1       9.602   8.886   8.561  1.00  0.00     0.012 A 
HETATM   51  C27 UNL     1       8.662   8.123   7.845  1.00  0.00     0.001 A 
HETATM   52  C29 UNL     1       8.821   6.729   7.732  1.00  0.00     0.002 A 
HETATM   53  C30 UNL     1      12.679   5.967  11.915  1.00  0.00     0.234 A 
HETATM   54  O7  UNL     1      11.199   4.423  10.756  1.00  0.00    -0.276 OA
HETATM   55  C31 UNL     1      12.554   5.500  13.350  1.00  0.00     0.054 A 
HETATM   56  C32 UNL     1      13.722   5.022  12.481  1.00  0.00     0.054 A 
HETATM   57  H26 UNL     1      12.853   7.982  12.306  1.00  0.00     0.319 HD
BRANCH  42  58
HETATM   58  O8  UNL     1      11.156   9.207  11.242  1.00  0.00    -0.381 OA
HETATM   59  H31 UNL     1      10.804  10.131  11.125  1.00  0.00     0.211 HD
ENDBRANCH  42  58
ENDBRANCH  41  42
ENDBRANCH  11  41
TORSDOF 8
ENDMDL
MODEL 8
REMARK VINA RESULT:     -10.8      8.673     12.966
REMARK  8 active torsions:
REMARK  status: ('A' for Active; 'I' for Inactive)
REMARK    1  A    between atoms: C5_7  and  C6_8 
REMARK    2  A    between atoms: C14_17  and  O2_18 
REMARK    3  A    between atoms: C15_19  and  C16_20 
REMARK    4  A    between atoms: C16_20  and  O4_22 
REMARK    5  A    between atoms: C17_23  and  O5_24 
REMARK    6  A    between atoms: C20_29  and  C21_30 
REMARK    7  A    between atoms: C21_30  and  C22_31 
REMARK    8  A    between atoms: C22_31  and  O8_46 
ROOT
HETATM    1  C1  UNL     1      15.247   5.381  -2.246  1.00  0.00     0.059 A 
HETATM    2  C2  UNL     1      15.509   4.030  -2.531  1.00  0.00     0.049 A 
HETATM    3  N1  UNL     1      16.055   3.694  -3.720  1.00  0.00    -0.340 N 
HETATM    4  H1  UNL     1      16.174   2.708  -3.950  1.00  0.00     0.167 HD
HETATM    5  C3  UNL     1      16.451   4.636  -4.618  1.00  0.00     0.138 C 
HETATM    6  C4  UNL     1      16.789   4.219  -6.012  1.00  0.00     0.078 C 
HETATM    7  C5  UNL     1      17.178   2.950  -6.274  1.00  0.00     0.043 C 
HETATM    8  N2  UNL     1      16.643   5.221  -7.042  1.00  0.00    -0.322 N 
HETATM    9  C19 UNL     1      16.601   6.591  -6.638  1.00  0.00     0.245 C 
HETATM   10  O6  UNL     1      16.130   7.467  -7.410  1.00  0.00    -0.271 OA
HETATM   11  C20 UNL     1      17.068   6.907  -5.241  1.00  0.00     0.190 C 
HETATM   12  N5  UNL     1      16.356   5.980  -4.309  1.00  0.00    -0.283 N 
HETATM   13  C34 UNL     1      15.645   6.354  -3.185  1.00  0.00     0.262 C 
HETATM   14  O9  UNL     1      15.295   7.553  -3.000  1.00  0.00    -0.267 OA
HETATM   15  C35 UNL     1      15.144   3.033  -1.619  1.00  0.00     0.030 A 
HETATM   16  C36 UNL     1      14.522   3.378  -0.418  1.00  0.00     0.002 A 
HETATM   17  C37 UNL     1      14.235   4.718  -0.135  1.00  0.00     0.001 A 
HETATM   18  C38 UNL     1      14.593   5.718  -1.045  1.00  0.00     0.019 A 
HETATM   19  H17 UNL     1      16.423   4.997  -8.038  1.00  0.00     0.169 HD
ENDROOT
BRANCH   7  20
HETATM   20  C6  UNL     1      17.433   2.370  -7.648  1.00  0.00     0.183 C 
HETATM   21  O1  UNL     1      16.157   2.196  -8.230  1.00  0.00    -0.372 OA
HETATM   22  C7  UNL     1      16.277   1.970  -9.615  1.00  0.00     0.127 C 
HETATM   23  C8  UNL     1      14.866   1.879 -10.210  1.00  0.00     0.040 C 
HETATM   24  C9  UNL     1      17.102   0.679  -9.923  1.00  0.00     0.044 C 
HETATM   25  C10 UNL     1      18.079   0.966 -11.082  1.00  0.00     0.017 C 
HETATM   26  C11 UNL     1      17.882   0.146  -8.717  1.00  0.00    -0.031 C 
HETATM   27  C12 UNL     1      18.407  -1.182  -8.693  1.00  0.00    -0.020 C 
HETATM   28  C18 UNL     1      18.145   1.022  -7.638  1.00  0.00     0.016 C 
HETATM   29  C13 UNL     1      18.094  -2.202  -9.770  1.00  0.00     0.052 C 
HETATM   30  C14 UNL     1      19.253  -1.573  -7.629  1.00  0.00     0.091 C 
HETATM   31  C15 UNL     1      19.633  -0.646  -6.644  1.00  0.00     0.104 C 
HETATM   32  C17 UNL     1      19.087   0.654  -6.649  1.00  0.00     0.095 C 
BRANCH  30  33
HETATM   33  O2  UNL     1      19.766  -2.875  -7.546  1.00  0.00    -0.359 OA
HETATM   34  H14 UNL     1      19.476  -3.554  -6.854  1.00  0.00     0.217 HD
ENDBRANCH  30  33
BRANCH  31  35
HETATM   35  C16 UNL     1      20.638  -1.050  -5.633  1.00  0.00     0.181 C 
HETATM   36  O3  UNL     1      21.714  -0.403  -5.514  1.00  0.00    -0.646 OA
BRANCH  35  37
HETATM   37  O4  UNL     1      20.378  -2.116  -4.774  1.00  0.00    -0.772 OA
HETATM   38  H15 UNL     1      20.271  -3.053  -5.133  1.00  0.00     0.167 HD
ENDBRANCH  35  37
ENDBRANCH  31  35
BRANCH  32  39
HETATM   39  O5  UNL     1      19.455   1.586  -5.672  1.00  0.00    -0.359 OA
HETATM   40  H16 UNL     1      20.029   2.396  -5.853  1.00  0.00     0.217 HD
ENDBRANCH  32  39
ENDBRANCH   7  20
BRANCH  11  41
HETATM   41  C21 UNL     1      17.064   8.425  -4.894  1.00  0.00     0.082 C 
BRANCH  41  42
HETATM   42  C22 UNL     1      18.486   9.059  -4.816  1.00  0.00     0.133 C 
HETATM   43  C23 UNL     1      19.123   9.245  -6.255  1.00  0.00     0.347 A 
HETATM   44  N3  UNL     1      20.491   8.720  -6.143  1.00  0.00    -0.182 NA
HETATM   45  N4  UNL     1      19.185  10.641  -6.777  1.00  0.00     0.124 N 
HETATM   46  C24 UNL     1      20.593   7.986  -4.937  1.00  0.00     0.029 A 
HETATM   47  C33 UNL     1      21.386   9.743  -6.513  1.00  0.00     0.245 A 
HETATM   48  C25 UNL     1      19.461   8.105  -4.171  1.00  0.00     0.001 A 
HETATM   49  C28 UNL     1      21.702   7.254  -4.501  1.00  0.00     0.025 A 
HETATM   50  C26 UNL     1      19.394   7.523  -2.899  1.00  0.00     0.012 A 
HETATM   51  C27 UNL     1      20.488   6.765  -2.445  1.00  0.00     0.001 A 
HETATM   52  C29 UNL     1      21.637   6.629  -3.246  1.00  0.00     0.002 A 
HETATM   53  C30 UNL     1      20.613  10.906  -6.936  1.00  0.00     0.234 A 
HETATM   54  O7  UNL     1      22.636   9.676  -6.383  1.00  0.00    -0.276 OA
HETATM   55  C31 UNL     1      21.128  12.328  -7.024  1.00  0.00     0.054 A 
HETATM   56  C32 UNL     1      20.969  11.485  -8.293  1.00  0.00     0.054 A 
HETATM   57  H26 UNL     1      18.768  11.342  -6.129  1.00  0.00     0.319 HD
BRANCH  42  58
HETATM   58  O8  UNL     1      18.460  10.253  -4.072  1.00  0.00    -0.381 OA
HETATM   59  H31 UNL     1      19.364  10.667  -4.112  1.00  0.00     0.211 HD
ENDBRANCH  42  58
ENDBRANCH  41  42
ENDBRANCH  11  41
TORSDOF 8
ENDMDL
MODEL 9
REMARK VINA RESULT:     -10.8     12.572     15.139
REMARK  8 active torsions:
REMARK  status: ('A' for Active; 'I' for Inactive)
REMARK    1  A    between atoms: C5_7  and  C6_8 
REMARK    2  A    between atoms: C14_17  and  O2_18 
REMARK    3  A    between atoms: C15_19  and  C16_20 
REMARK    4  A    between atoms: C16_20  and  O4_22 
REMARK    5  A    between atoms: C17_23  and  O5_24 
REMARK    6  A    between atoms: C20_29  and  C21_30 
REMARK    7  A    between atoms: C21_30  and  C22_31 
REMARK    8  A    between atoms: C22_31  and  O8_46 
ROOT
HETATM    1  C1  UNL     1      17.436   6.985  -4.128  1.00  0.00     0.059 A 
HETATM    2  C2  UNL     1      16.739   6.024  -4.880  1.00  0.00     0.049 A 
HETATM    3  N1  UNL     1      16.478   6.261  -6.184  1.00  0.00    -0.340 N 
HETATM    4  H1  UNL     1      15.909   5.594  -6.706  1.00  0.00     0.167 HD
HETATM    5  C3  UNL     1      16.955   7.364  -6.821  1.00  0.00     0.138 C 
HETATM    6  C4  UNL     1      16.417   7.718  -8.170  1.00  0.00     0.078 C 
HETATM    7  C5  UNL     1      15.869   6.768  -8.961  1.00  0.00     0.043 C 
HETATM    8  N2  UNL     1      16.487   9.110  -8.550  1.00  0.00    -0.322 N 
HETATM    9  C19 UNL     1      17.399   9.950  -7.841  1.00  0.00     0.245 C 
HETATM   10  O6  UNL     1      17.262  11.201  -7.868  1.00  0.00    -0.271 OA
HETATM   11  C20 UNL     1      18.460   9.268  -7.018  1.00  0.00     0.190 C 
HETATM   12  N5  UNL     1      17.777   8.255  -6.156  1.00  0.00    -0.283 N 
HETATM   13  C34 UNL     1      17.916   8.135  -4.787  1.00  0.00     0.262 C 
HETATM   14  O9  UNL     1      18.422   9.062  -4.096  1.00  0.00    -0.267 OA
HETATM   15  C35 UNL     1      16.258   4.861  -4.269  1.00  0.00     0.030 A 
HETATM   16  C36 UNL     1      16.474   4.648  -2.906  1.00  0.00     0.002 A 
HETATM   17  C37 UNL     1      17.146   5.609  -2.142  1.00  0.00     0.001 A 
HETATM   18  C38 UNL     1      17.624   6.776  -2.747  1.00  0.00     0.019 A 
HETATM   19  H17 UNL     1      15.812   9.562  -9.208  1.00  0.00     0.169 HD
ENDROOT
BRANCH   7  20
HETATM   20  C6  UNL     1      15.186   7.011 -10.289  1.00  0.00     0.183 C 
HETATM   21  O1  UNL     1      14.406   8.176 -10.109  1.00  0.00    -0.372 OA
HETATM   22  C7  UNL     1      13.985   8.680 -11.355  1.00  0.00     0.127 C 
HETATM   23  C8  UNL     1      13.223   9.990 -11.109  1.00  0.00     0.040 C 
HETATM   24  C9  UNL     1      13.099   7.651 -12.128  1.00  0.00     0.044 C 
HETATM   25  C10 UNL     1      13.523   7.631 -13.611  1.00  0.00     0.017 C 
HETATM   26  C11 UNL     1      13.167   6.231 -11.557  1.00  0.00    -0.031 C 
HETATM   27  C12 UNL     1      12.191   5.243 -11.892  1.00  0.00    -0.020 C 
HETATM   28  C18 UNL     1      14.265   5.881 -10.737  1.00  0.00     0.016 C 
HETATM   29  C13 UNL     1      10.945   5.566 -12.691  1.00  0.00     0.052 C 
HETATM   30  C14 UNL     1      12.386   3.908 -11.468  1.00  0.00     0.091 C 
HETATM   31  C15 UNL     1      13.558   3.540 -10.787  1.00  0.00     0.104 C 
HETATM   32  C17 UNL     1      14.504   4.522 -10.426  1.00  0.00     0.095 C 
BRANCH  30  33
HETATM   33  O2  UNL     1      11.441   2.910 -11.746  1.00  0.00    -0.359 OA
HETATM   34  H14 UNL     1      10.443   3.072 -11.787  1.00  0.00     0.217 HD
ENDBRANCH  30  33
BRANCH  31  35
HETATM   35  C16 UNL     1      13.794   2.107 -10.493  1.00  0.00     0.181 C 
HETATM   36  O3  UNL     1      14.913   1.583 -10.744  1.00  0.00    -0.646 OA
BRANCH  35  37
HETATM   37  O4  UNL     1      12.797   1.342  -9.892  1.00  0.00    -0.772 OA
HETATM   38  H15 UNL     1      11.913   1.756  -9.635  1.00  0.00     0.167 HD
ENDBRANCH  35  37
ENDBRANCH  31  35
BRANCH  32  39
HETATM   39  O5  UNL     1      15.674   4.169  -9.746  1.00  0.00    -0.359 OA
HETATM   40  H16 UNL     1      16.212   4.809  -9.179  1.00  0.00     0.217 HD
ENDBRANCH  32  39
ENDBRANCH   7  20
BRANCH  11  41
HETATM   41  C21 UNL     1      19.462  10.242  -6.332  1.00  0.00     0.082 C 
BRANCH  41  42
HETATM   42  C22 UNL     1      20.930  10.097  -6.837  1.00  0.00     0.133 C 
HETATM   43  C23 UNL     1      21.059   8.967  -7.941  1.00  0.00     0.347 A 
HETATM   44  N3  UNL     1      22.223   8.165  -7.538  1.00  0.00    -0.182 NA
HETATM   45  N4  UNL     1      21.259   9.430  -9.345  1.00  0.00     0.124 N 
HETATM   46  C24 UNL     1      22.562   8.501  -6.205  1.00  0.00     0.029 A 
HETATM   47  C33 UNL     1      23.147   8.165  -8.601  1.00  0.00     0.245 A 
HETATM   48  C25 UNL     1      21.820   9.559  -5.744  1.00  0.00     0.001 A 
HETATM   49  C28 UNL     1      23.552   7.902  -5.422  1.00  0.00     0.025 A 
HETATM   50  C26 UNL     1      22.060  10.102  -4.475  1.00  0.00     0.012 A 
HETATM   51  C27 UNL     1      23.039   9.505  -3.660  1.00  0.00     0.001 A 
HETATM   52  C29 UNL     1      23.780   8.405  -4.132  1.00  0.00     0.002 A 
HETATM   53  C30 UNL     1      22.565   8.898  -9.722  1.00  0.00     0.234 A 
HETATM   54  O7  UNL     1      24.315   7.702  -8.529  1.00  0.00    -0.276 OA
HETATM   55  C31 UNL     1      23.331   9.489 -10.888  1.00  0.00     0.054 A 
HETATM   56  C32 UNL     1      22.557   8.177 -11.057  1.00  0.00     0.054 A 
HETATM   57  H26 UNL     1      21.262  10.468  -9.439  1.00  0.00     0.319 HD
BRANCH  42  58
HETATM   58  O8  UNL     1      21.435  11.339  -7.265  1.00  0.00    -0.381 OA
HETATM   59  H31 UNL     1      22.388  11.215  -7.529  1.00  0.00     0.211 HD
ENDBRANCH  42  58
ENDBRANCH  41  42
ENDBRANCH  11  41
TORSDOF 8
ENDMDL
MODEL 10
REMARK VINA RESULT:     -10.7     16.933     21.481
REMARK  8 active torsions:
REMARK  status: ('A' for Active; 'I' for Inactive)
REMARK    1  A    between atoms: C5_7  and  C6_8 
REMARK    2  A    between atoms: C14_17  and  O2_18 
REMARK    3  A    between atoms: C15_19  and  C16_20 
REMARK    4  A    between atoms: C16_20  and  O4_22 
REMARK    5  A    between atoms: C17_23  and  O5_24 
REMARK    6  A    between atoms: C20_29  and  C21_30 
REMARK    7  A    between atoms: C21_30  and  C22_31 
REMARK    8  A    between atoms: C22_31  and  O8_46 
ROOT
HETATM    1  C1  UNL     1      14.079   9.188   4.200  1.00  0.00     0.059 A 
HETATM    2  C2  UNL     1      15.179   8.335   4.394  1.00  0.00     0.049 A 
HETATM    3  N1  UNL     1      15.977   8.512   5.469  1.00  0.00    -0.340 N 
HETATM    4  H1  UNL     1      16.815   7.938   5.566  1.00  0.00     0.167 HD
HETATM    5  C3  UNL     1      15.692   9.434   6.428  1.00  0.00     0.138 C 
HETATM    6  C4  UNL     1      16.735   9.779   7.442  1.00  0.00     0.078 C 
HETATM    7  C5  UNL     1      17.722   8.903   7.737  1.00  0.00     0.043 C 
HETATM    8  N2  UNL     1      16.645  11.089   8.044  1.00  0.00    -0.322 N 
HETATM    9  C19 UNL     1      15.395  11.775   7.962  1.00  0.00     0.245 C 
HETATM   10  O6  UNL     1      15.341  13.021   8.138  1.00  0.00    -0.271 OA
HETATM   11  C20 UNL     1      14.187  10.957   7.587  1.00  0.00     0.190 C 
HETATM   12  N5  UNL     1      14.534  10.185   6.354  1.00  0.00    -0.283 N 
HETATM   13  C34 UNL     1      13.795  10.153   5.187  1.00  0.00     0.262 C 
HETATM   14  O9  UNL     1      12.895  11.008   4.958  1.00  0.00    -0.267 OA
HETATM   15  C35 UNL     1      15.488   7.353   3.445  1.00  0.00     0.030 A 
HETATM   16  C36 UNL     1      14.699   7.213   2.302  1.00  0.00     0.002 A 
HETATM   17  C37 UNL     1      13.615   8.073   2.087  1.00  0.00     0.001 A 
HETATM   18  C38 UNL     1      13.306   9.060   3.029  1.00  0.00     0.019 A 
HETATM   19  H17 UNL     1      17.472  11.617   8.404  1.00  0.00     0.169 HD
ENDROOT
BRANCH   7  20
HETATM   20  C6  UNL     1      18.899   9.172   8.649  1.00  0.00     0.183 C 
HETATM   21  O1  UNL     1      18.352   9.761   9.812  1.00  0.00    -0.372 OA
HETATM   22  C7  UNL     1      19.301   9.758  10.854  1.00  0.00     0.127 C 
HETATM   23  C8  UNL     1      18.629  10.321  12.114  1.00  0.00     0.040 C 
HETATM   24  C9  UNL     1      20.576  10.579  10.480  1.00  0.00     0.044 C 
HETATM   25  C10 UNL     1      21.830   9.800  10.929  1.00  0.00     0.017 C 
HETATM   26  C11 UNL     1      20.682  10.904   8.987  1.00  0.00    -0.031 C 
HETATM   27  C12 UNL     1      21.567  11.915   8.502  1.00  0.00    -0.020 C 
HETATM   28  C18 UNL     1      19.936  10.127   8.070  1.00  0.00     0.016 C 
HETATM   29  C13 UNL     1      22.330  12.842   9.427  1.00  0.00     0.052 C 
HETATM   30  C14 UNL     1      21.746  12.067   7.108  1.00  0.00     0.091 C 
HETATM   31  C15 UNL     1      21.119  11.188   6.209  1.00  0.00     0.104 C 
HETATM   32  C17 UNL     1      20.219  10.212   6.686  1.00  0.00     0.095 C 
BRANCH  30  33
HETATM   33  O2  UNL     1      22.579  13.066   6.584  1.00  0.00    -0.359 OA
HETATM   34  H14 UNL     1      22.762  13.948   7.045  1.00  0.00     0.217 HD
ENDBRANCH  30  33
BRANCH  31  35
HETATM   35  C16 UNL     1      21.450  11.284   4.767  1.00  0.00     0.181 C 
HETATM   36  O3  UNL     1      22.623  11.053   4.369  1.00  0.00    -0.646 OA
BRANCH  35  37
HETATM   37  O4  UNL     1      20.454  11.582   3.839  1.00  0.00    -0.772 OA
HETATM   38  H15 UNL     1      20.677  11.688   2.861  1.00  0.00     0.167 HD
ENDBRANCH  35  37
ENDBRANCH  31  35
BRANCH  32  39
HETATM   39  O5  UNL     1      19.586   9.333   5.801  1.00  0.00    -0.359 OA
HETATM   40  H16 UNL     1      18.608   9.386   5.556  1.00  0.00     0.217 HD
ENDBRANCH  32  39
ENDBRANCH   7  20
BRANCH  11  41
HETATM   41  C21 UNL     1      12.849  11.753   7.588  1.00  0.00     0.082 C 
BRANCH  41  42
HETATM   42  C22 UNL     1      11.797  11.217   8.604  1.00  0.00     0.133 C 
HETATM   43  C23 UNL     1      12.407  11.078  10.060  1.00  0.00     0.347 A 
HETATM   44  N3  UNL     1      11.995   9.746  10.526  1.00  0.00    -0.182 NA
HETATM   45  N4  UNL     1      11.971  12.093  11.062  1.00  0.00     0.124 N 
HETATM   46  C24 UNL     1      11.512   9.011   9.416  1.00  0.00     0.029 A 
HETATM   47  C33 UNL     1      11.280   9.902  11.729  1.00  0.00     0.245 A 
HETATM   48  C25 UNL     1      11.429   9.788   8.289  1.00  0.00     0.001 A 
HETATM   49  C28 UNL     1      11.107   7.673   9.418  1.00  0.00     0.025 A 
HETATM   50  C26 UNL     1      10.894   9.271   7.102  1.00  0.00     0.012 A 
HETATM   51  C27 UNL     1      10.496   7.922   7.071  1.00  0.00     0.001 A 
HETATM   52  C29 UNL     1      10.607   7.126   8.227  1.00  0.00     0.002 A 
HETATM   53  C30 UNL     1      11.285  11.317  12.092  1.00  0.00     0.234 A 
HETATM   54  O7  UNL     1      10.655   8.977  12.312  1.00  0.00    -0.276 OA
HETATM   55  C31 UNL     1      10.325  11.989  13.052  1.00  0.00     0.054 A 
HETATM   56  C32 UNL     1      11.749  11.641  13.499  1.00  0.00     0.054 A 
HETATM   57  H26 UNL     1      11.322  12.806  10.670  1.00  0.00     0.319 HD
BRANCH  42  58
HETATM   58  O8  UNL     1      10.629  12.003   8.575  1.00  0.00    -0.381 OA
HETATM   59  H31 UNL     1       9.876  11.434   8.259  1.00  0.00     0.211 HD
ENDBRANCH  42  58
ENDBRANCH  41  42
ENDBRANCH  11  41
TORSDOF 8
ENDMDL
MODEL 11
REMARK VINA RESULT:     -10.6     11.658     14.667
REMARK  8 active torsions:
REMARK  status: ('A' for Active; 'I' for Inactive)
REMARK    1  A    between atoms: C5_7  and  C6_8 
REMARK    2  A    between atoms: C14_17  and  O2_18 
REMARK    3  A    between atoms: C15_19  and  C16_20 
REMARK    4  A    between atoms: C16_20  and  O4_22 
REMARK    5  A    between atoms: C17_23  and  O5_24 
REMARK    6  A    between atoms: C20_29  and  C21_30 
REMARK    7  A    between atoms: C21_30  and  C22_31 
REMARK    8  A    between atoms: C22_31  and  O8_46 
ROOT
HETATM    1  C1  UNL     1      17.528   7.027  -3.895  1.00  0.00     0.059 A 
HETATM    2  C2  UNL     1      16.991   5.830  -4.399  1.00  0.00     0.049 A 
HETATM    3  N1  UNL     1      16.613   5.763  -5.694  1.00  0.00    -0.340 N 
HETATM    4  H1  UNL     1      16.156   4.918  -6.035  1.00  0.00     0.167 HD
HETATM    5  C3  UNL     1      16.828   6.794  -6.556  1.00  0.00     0.138 C 
HETATM    6  C4  UNL     1      16.154   6.781  -7.890  1.00  0.00     0.078 C 
HETATM    7  C5  UNL     1      15.757   5.615  -8.448  1.00  0.00     0.043 C 
HETATM    8  N2  UNL     1      15.928   8.064  -8.513  1.00  0.00    -0.322 N 
HETATM    9  C19 UNL     1      16.698   9.175  -8.051  1.00  0.00     0.245 C 
HETATM   10  O6  UNL     1      16.317  10.353  -8.283  1.00  0.00    -0.271 OA
HETATM   11  C20 UNL     1      17.917   8.866  -7.223  1.00  0.00     0.190 C 
HETATM   12  N5  UNL     1      17.497   7.928  -6.137  1.00  0.00    -0.283 N 
HETATM   13  C34 UNL     1      17.736   8.097  -4.787  1.00  0.00     0.262 C 
HETATM   14  O9  UNL     1      18.090   9.215  -4.319  1.00  0.00    -0.267 OA
HETATM   15  C35 UNL     1      16.783   4.736  -3.550  1.00  0.00     0.030 A 
HETATM   16  C36 UNL     1      17.115   4.828  -2.197  1.00  0.00     0.002 A 
HETATM   17  C37 UNL     1      17.629   6.023  -1.680  1.00  0.00     0.001 A 
HETATM   18  C38 UNL     1      17.833   7.121  -2.522  1.00  0.00     0.019 A 
HETATM   19  H17 UNL     1      15.141   8.254  -9.174  1.00  0.00     0.169 HD
ENDROOT
BRANCH   7  20
HETATM   20  C6  UNL     1      14.964   5.473  -9.728  1.00  0.00     0.183 C 
HETATM   21  O1  UNL     1      13.696   6.035  -9.455  1.00  0.00    -0.372 OA
HETATM   22  C7  UNL     1      12.989   6.252 -10.654  1.00  0.00     0.127 C 
HETATM   23  C8  UNL     1      11.663   6.944 -10.309  1.00  0.00     0.040 C 
HETATM   24  C9  UNL     1      12.742   4.920 -11.433  1.00  0.00     0.044 C 
HETATM   25  C10 UNL     1      13.012   5.153 -12.933  1.00  0.00     0.017 C 
HETATM   26  C11 UNL     1      13.597   3.750 -10.934  1.00  0.00    -0.031 C 
HETATM   27  C12 UNL     1      13.282   2.398 -11.270  1.00  0.00    -0.020 C 
HETATM   28  C18 UNL     1      14.763   4.033 -10.186  1.00  0.00     0.016 C 
HETATM   29  C13 UNL     1      12.007   2.013 -11.993  1.00  0.00     0.052 C 
HETATM   30  C14 UNL     1      14.188   1.370 -10.921  1.00  0.00     0.091 C 
HETATM   31  C15 UNL     1      15.417   1.678 -10.315  1.00  0.00     0.104 C 
HETATM   32  C17 UNL     1      15.712   3.010  -9.953  1.00  0.00     0.095 C 
BRANCH  30  33
HETATM   33  O2  UNL     1      13.907   0.025 -11.201  1.00  0.00    -0.359 OA
HETATM   34  H14 UNL     1      14.469  -0.750 -10.872  1.00  0.00     0.217 HD
ENDBRANCH  30  33
BRANCH  31  35
HETATM   35  C16 UNL     1      16.402   0.592 -10.103  1.00  0.00     0.181 C 
HETATM   36  O3  UNL     1      16.680  -0.204 -11.040  1.00  0.00    -0.646 OA
BRANCH  35  37
HETATM   37  O4  UNL     1      17.062   0.475  -8.882  1.00  0.00    -0.772 OA
HETATM   38  H15 UNL     1      17.186   1.277  -8.283  1.00  0.00     0.167 HD
ENDBRANCH  35  37
ENDBRANCH  31  35
BRANCH  32  39
HETATM   39  O5  UNL     1      16.931   3.330  -9.347  1.00  0.00    -0.359 OA
HETATM   40  H16 UNL     1      17.225   4.272  -9.133  1.00  0.00     0.217 HD
ENDBRANCH  32  39
ENDBRANCH   7  20
BRANCH  11  41
HETATM   41  C21 UNL     1      18.748  10.118  -6.815  1.00  0.00     0.082 C 
BRANCH  41  42
HETATM   42  C22 UNL     1      20.206  10.115  -7.365  1.00  0.00     0.133 C 
HETATM   43  C23 UNL     1      20.501   8.823  -8.236  1.00  0.00     0.347 A 
HETATM   44  N3  UNL     1      21.793   8.318  -7.752  1.00  0.00    -0.182 NA
HETATM   45  N4  UNL     1      20.585   9.024  -9.711  1.00  0.00     0.124 N 
HETATM   46  C24 UNL     1      22.100   8.964  -6.530  1.00  0.00     0.029 A 
HETATM   47  C33 UNL     1      22.678   8.256  -8.846  1.00  0.00     0.245 A 
HETATM   48  C25 UNL     1      21.200   9.958  -6.240  1.00  0.00     0.001 A 
HETATM   49  C28 UNL     1      23.197   8.701  -5.704  1.00  0.00     0.025 A 
HETATM   50  C26 UNL     1      21.375  10.774  -5.116  1.00  0.00     0.012 A 
HETATM   51  C27 UNL     1      22.459  10.519  -4.257  1.00  0.00     0.001 A 
HETATM   52  C29 UNL     1      23.365   9.482  -4.550  1.00  0.00     0.002 A 
HETATM   53  C30 UNL     1      21.954   8.646 -10.052  1.00  0.00     0.234 A 
HETATM   54  O7  UNL     1      23.910   8.011  -8.753  1.00  0.00    -0.276 OA
HETATM   55  C31 UNL     1      22.581   9.108 -11.352  1.00  0.00     0.054 A 
HETATM   56  C32 UNL     1      22.038   7.681 -11.220  1.00  0.00     0.054 A 
HETATM   57  H26 UNL     1      20.410  10.008 -10.004  1.00  0.00     0.319 HD
BRANCH  42  58
HETATM   58  O8  UNL     1      20.484  11.311  -8.051  1.00  0.00    -0.381 OA
HETATM   59  H31 UNL     1      19.771  11.454  -8.732  1.00  0.00     0.211 HD
ENDBRANCH  42  58
ENDBRANCH  41  42
ENDBRANCH  11  41
TORSDOF 8
ENDMDL
MODEL 12
REMARK VINA RESULT:     -10.6     17.248     21.269
REMARK  8 active torsions:
REMARK  status: ('A' for Active; 'I' for Inactive)
REMARK    1  A    between atoms: C5_7  and  C6_8 
REMARK    2  A    between atoms: C14_17  and  O2_18 
REMARK    3  A    between atoms: C15_19  and  C16_20 
REMARK    4  A    between atoms: C16_20  and  O4_22 
REMARK    5  A    between atoms: C17_23  and  O5_24 
REMARK    6  A    between atoms: C20_29  and  C21_30 
REMARK    7  A    between atoms: C21_30  and  C22_31 
REMARK    8  A    between atoms: C22_31  and  O8_46 
ROOT
HETATM    1  C1  UNL     1      13.585   9.148   4.600  1.00  0.00     0.059 A 
HETATM    2  C2  UNL     1      14.941   8.849   4.386  1.00  0.00     0.049 A 
HETATM    3  N1  UNL     1      15.791   8.820   5.435  1.00  0.00    -0.340 N 
HETATM    4  H1  UNL     1      16.786   8.675   5.265  1.00  0.00     0.167 HD
HETATM    5  C3  UNL     1      15.355   8.980   6.714  1.00  0.00     0.138 C 
HETATM    6  C4  UNL     1      16.353   9.214   7.802  1.00  0.00     0.078 C 
HETATM    7  C5  UNL     1      17.633   8.802   7.659  1.00  0.00     0.043 C 
HETATM    8  N2  UNL     1      15.884   9.923   8.969  1.00  0.00    -0.322 N 
HETATM    9  C19 UNL     1      14.474   9.978   9.194  1.00  0.00     0.245 C 
HETATM   10  O6  UNL     1      13.986  10.849   9.961  1.00  0.00    -0.271 OA
HETATM   11  C20 UNL     1      13.619   9.009   8.421  1.00  0.00     0.190 C 
HETATM   12  N5  UNL     1      14.006   9.119   6.980  1.00  0.00    -0.283 N 
HETATM   13  C34 UNL     1      13.139   9.328   5.925  1.00  0.00     0.262 C 
HETATM   14  O9  UNL     1      11.958   9.729   6.117  1.00  0.00    -0.267 OA
HETATM   15  C35 UNL     1      15.424   8.648   3.087  1.00  0.00     0.030 A 
HETATM   16  C36 UNL     1      14.556   8.740   1.997  1.00  0.00     0.002 A 
HETATM   17  C37 UNL     1      13.208   9.061   2.198  1.00  0.00     0.001 A 
HETATM   18  C38 UNL     1      12.722   9.268   3.493  1.00  0.00     0.019 A 
HETATM   19  H17 UNL     1      16.500  10.513   9.572  1.00  0.00     0.169 HD
ENDROOT
BRANCH   7  20
HETATM   20  C6  UNL     1      18.763   9.080   8.626  1.00  0.00     0.183 C 
HETATM   21  O1  UNL     1      18.156   9.647   9.770  1.00  0.00    -0.372 OA
HETATM   22  C7  UNL     1      19.056   9.647  10.853  1.00  0.00     0.127 C 
HETATM   23  C8  UNL     1      18.320  10.187  12.087  1.00  0.00     0.040 C 
HETATM   24  C9  UNL     1      20.334  10.492  10.545  1.00  0.00     0.044 C 
HETATM   25  C10 UNL     1      21.578   9.728  11.042  1.00  0.00     0.017 C 
HETATM   26  C11 UNL     1      20.502  10.835   9.061  1.00  0.00    -0.031 C 
HETATM   27  C12 UNL     1      21.391  11.865   8.628  1.00  0.00    -0.020 C 
HETATM   28  C18 UNL     1      19.811  10.057   8.104  1.00  0.00     0.016 C 
HETATM   29  C13 UNL     1      22.097  12.793   9.595  1.00  0.00     0.052 C 
HETATM   30  C14 UNL     1      21.630  12.034   7.244  1.00  0.00     0.091 C 
HETATM   31  C15 UNL     1      21.059  11.156   6.309  1.00  0.00     0.104 C 
HETATM   32  C17 UNL     1      20.154  10.161   6.735  1.00  0.00     0.095 C 
BRANCH  30  33
HETATM   33  O2  UNL     1      22.470  13.052   6.769  1.00  0.00    -0.359 OA
HETATM   34  H14 UNL     1      22.242  14.037   6.807  1.00  0.00     0.217 HD
ENDBRANCH  30  33
BRANCH  31  35
HETATM   35  C16 UNL     1      21.452  11.272   4.885  1.00  0.00     0.181 C 
HETATM   36  O3  UNL     1      22.644  11.053   4.537  1.00  0.00    -0.646 OA
BRANCH  35  37
HETATM   37  O4  UNL     1      20.497  11.575   3.917  1.00  0.00    -0.772 OA
HETATM   38  H15 UNL     1      19.721  10.954   3.747  1.00  0.00     0.167 HD
ENDBRANCH  35  37
ENDBRANCH  31  35
BRANCH  32  39
HETATM   39  O5  UNL     1      19.575   9.281   5.814  1.00  0.00    -0.359 OA
HETATM   40  H16 UNL     1      20.089   8.815   5.081  1.00  0.00     0.217 HD
ENDBRANCH  32  39
ENDBRANCH   7  20
BRANCH  11  41
HETATM   41  C21 UNL     1      12.103   9.075   8.768  1.00  0.00     0.082 C 
BRANCH  41  42
HETATM   42  C22 UNL     1      11.558   7.791   9.462  1.00  0.00     0.133 C 
HETATM   43  C23 UNL     1      10.103   7.421   8.951  1.00  0.00     0.347 A 
HETATM   44  N3  UNL     1       9.325   7.148  10.167  1.00  0.00    -0.182 NA
HETATM   45  N4  UNL     1       9.999   6.246   8.039  1.00  0.00     0.124 N 
HETATM   46  C24 UNL     1      10.055   7.617  11.284  1.00  0.00     0.029 A 
HETATM   47  C33 UNL     1       8.801   5.844  10.069  1.00  0.00     0.245 A 
HETATM   48  C25 UNL     1      11.311   8.041  10.930  1.00  0.00     0.001 A 
HETATM   49  C28 UNL     1       9.626   7.627  12.615  1.00  0.00     0.025 A 
HETATM   50  C26 UNL     1      12.225   8.464  11.903  1.00  0.00     0.012 A 
HETATM   51  C27 UNL     1      11.811   8.501  13.247  1.00  0.00     0.001 A 
HETATM   52  C29 UNL     1      10.512   8.087  13.600  1.00  0.00     0.002 A 
HETATM   53  C30 UNL     1       9.168   5.292   8.768  1.00  0.00     0.234 A 
HETATM   54  O7  UNL     1       8.214   5.240  11.005  1.00  0.00    -0.276 OA
HETATM   55  C31 UNL     1       9.177   3.822   8.399  1.00  0.00     0.054 A 
HETATM   56  C32 UNL     1       8.030   4.729   7.937  1.00  0.00     0.054 A 
HETATM   57  H26 UNL     1      10.921   5.812   7.819  1.00  0.00     0.319 HD
BRANCH  42  58
HETATM   58  O8  UNL     1      12.469   6.727   9.330  1.00  0.00    -0.381 OA
HETATM   59  H31 UNL     1      12.191   6.170   8.552  1.00  0.00     0.211 HD
ENDBRANCH  42  58
ENDBRANCH  41  42
ENDBRANCH  11  41
TORSDOF 8
ENDMDL
MODEL 13
REMARK VINA RESULT:     -10.6     11.830     13.980
REMARK  8 active torsions:
REMARK  status: ('A' for Active; 'I' for Inactive)
REMARK    1  A    between atoms: C5_7  and  C6_8 
REMARK    2  A    between atoms: C14_17  and  O2_18 
REMARK    3  A    between atoms: C15_19  and  C16_20 
REMARK    4  A    between atoms: C16_20  and  O4_22 
REMARK    5  A    between atoms: C17_23  and  O5_24 
REMARK    6  A    between atoms: C20_29  and  C21_30 
REMARK    7  A    between atoms: C21_30  and  C22_31 
REMARK    8  A    between atoms: C22_31  and  O8_46 
ROOT
HETATM    1  C1  UNL     1      21.259   8.486  -3.413  1.00  0.00     0.059 A 
HETATM    2  C2  UNL     1      21.161   8.941  -4.739  1.00  0.00     0.049 A 
HETATM    3  N1  UNL     1      20.279   8.359  -5.580  1.00  0.00    -0.340 N 
HETATM    4  H1  UNL     1      20.265   8.643  -6.559  1.00  0.00     0.167 HD
HETATM    5  C3  UNL     1      19.408   7.405  -5.154  1.00  0.00     0.138 C 
HETATM    6  C4  UNL     1      18.652   6.604  -6.165  1.00  0.00     0.078 C 
HETATM    7  C5  UNL     1      18.432   7.096  -7.405  1.00  0.00     0.043 C 
HETATM    8  N2  UNL     1      18.212   5.291  -5.754  1.00  0.00    -0.322 N 
HETATM    9  C19 UNL     1      18.152   5.016  -4.354  1.00  0.00     0.245 C 
HETATM   10  O6  UNL     1      18.127   3.827  -3.940  1.00  0.00    -0.271 OA
HETATM   11  C20 UNL     1      18.196   6.198  -3.421  1.00  0.00     0.190 C 
HETATM   12  N5  UNL     1      19.364   7.042  -3.821  1.00  0.00    -0.283 N 
HETATM   13  C34 UNL     1      20.365   7.487  -2.979  1.00  0.00     0.262 C 
HETATM   14  O9  UNL     1      20.533   6.979  -1.836  1.00  0.00    -0.267 OA
HETATM   15  C35 UNL     1      22.019   9.944  -5.207  1.00  0.00     0.030 A 
HETATM   16  C36 UNL     1      22.974  10.501  -4.353  1.00  0.00     0.002 A 
HETATM   17  C37 UNL     1      23.095  10.038  -3.038  1.00  0.00     0.001 A 
HETATM   18  C38 UNL     1      22.244   9.033  -2.567  1.00  0.00     0.019 A 
HETATM   19  H17 UNL     1      18.077   4.495  -6.417  1.00  0.00     0.169 HD
ENDROOT
BRANCH   7  20
HETATM   20  C6  UNL     1      17.789   6.347  -8.552  1.00  0.00     0.183 C 
HETATM   21  O1  UNL     1      18.859   5.825  -9.314  1.00  0.00    -0.372 OA
HETATM   22  C7  UNL     1      18.389   4.848 -10.212  1.00  0.00     0.127 C 
HETATM   23  C8  UNL     1      19.598   4.252 -10.947  1.00  0.00     0.040 C 
HETATM   24  C9  UNL     1      17.352   5.437 -11.222  1.00  0.00     0.044 C 
HETATM   25  C10 UNL     1      16.178   4.448 -11.378  1.00  0.00     0.017 C 
HETATM   26  C11 UNL     1      16.812   6.812 -10.815  1.00  0.00    -0.031 C 
HETATM   27  C12 UNL     1      16.137   7.656 -11.748  1.00  0.00    -0.020 C 
HETATM   28  C18 UNL     1      16.927   7.213  -9.463  1.00  0.00     0.016 C 
HETATM   29  C13 UNL     1      16.051   7.334 -13.226  1.00  0.00     0.052 C 
HETATM   30  C14 UNL     1      15.519   8.842 -11.286  1.00  0.00     0.091 C 
HETATM   31  C15 UNL     1      15.505   9.152  -9.917  1.00  0.00     0.104 C 
HETATM   32  C17 UNL     1      16.202   8.336  -9.001  1.00  0.00     0.095 C 
BRANCH  30  33
HETATM   33  O2  UNL     1      14.872   9.718 -12.170  1.00  0.00    -0.359 OA
HETATM   34  H14 UNL     1      13.871   9.729 -12.324  1.00  0.00     0.217 HD
ENDBRANCH  30  33
BRANCH  31  35
HETATM   35  C16 UNL     1      14.720  10.322  -9.456  1.00  0.00     0.181 C 
HETATM   36  O3  UNL     1      13.558  10.520  -9.902  1.00  0.00    -0.646 OA
BRANCH  35  37
HETATM   37  O4  UNL     1      15.243  11.180  -8.491  1.00  0.00    -0.772 OA
HETATM   38  H15 UNL     1      15.603  10.818  -7.620  1.00  0.00     0.167 HD
ENDBRANCH  35  37
ENDBRANCH  31  35
BRANCH  32  39
HETATM   39  O5  UNL     1      16.199   8.636  -7.634  1.00  0.00    -0.359 OA
HETATM   40  H16 UNL     1      15.466   8.360  -6.998  1.00  0.00     0.217 HD
ENDBRANCH  32  39
ENDBRANCH   7  20
BRANCH  11  41
HETATM   41  C21 UNL     1      18.053   5.831  -1.915  1.00  0.00     0.082 C 
BRANCH  41  42
HETATM   42  C22 UNL     1      16.625   6.073  -1.339  1.00  0.00     0.133 C 
HETATM   43  C23 UNL     1      16.667   6.405   0.210  1.00  0.00     0.347 A 
HETATM   44  N3  UNL     1      15.633   5.554   0.815  1.00  0.00    -0.182 NA
HETATM   45  N4  UNL     1      16.408   7.823   0.592  1.00  0.00     0.124 N 
HETATM   46  C24 UNL     1      15.243   4.577  -0.131  1.00  0.00     0.029 A 
HETATM   47  C33 UNL     1      14.723   6.387   1.497  1.00  0.00     0.245 A 
HETATM   48  C25 UNL     1      15.819   4.797  -1.357  1.00  0.00     0.001 A 
HETATM   49  C28 UNL     1      14.348   3.524   0.081  1.00  0.00     0.025 A 
HETATM   50  C26 UNL     1      15.496   3.989  -2.455  1.00  0.00     0.012 A 
HETATM   51  C27 UNL     1      14.613   2.911  -2.263  1.00  0.00     0.001 A 
HETATM   52  C29 UNL     1      14.044   2.679  -0.997  1.00  0.00     0.002 A 
HETATM   53  C30 UNL     1      15.195   7.765   1.404  1.00  0.00     0.234 A 
HETATM   54  O7  UNL     1      13.635   5.995   1.995  1.00  0.00    -0.276 OA
HETATM   55  C31 UNL     1      14.356   9.007   1.625  1.00  0.00     0.054 A 
HETATM   56  C32 UNL     1      15.315   8.518   2.716  1.00  0.00     0.054 A 
HETATM   57  H26 UNL     1      16.252   8.448  -0.227  1.00  0.00     0.319 HD
BRANCH  42  58
HETATM   58  O8  UNL     1      15.944   7.050  -2.089  1.00  0.00    -0.381 OA
HETATM   59  H31 UNL     1      16.581   7.787  -2.295  1.00  0.00     0.211 HD
ENDBRANCH  42  58
ENDBRANCH  41  42
ENDBRANCH  11  41
TORSDOF 8
ENDMDL
MODEL 14
REMARK VINA RESULT:     -10.6     17.059     21.989
REMARK  8 active torsions:
REMARK  status: ('A' for Active; 'I' for Inactive)
REMARK    1  A    between atoms: C5_7  and  C6_8 
REMARK    2  A    between atoms: C14_17  and  O2_18 
REMARK    3  A    between atoms: C15_19  and  C16_20 
REMARK    4  A    between atoms: C16_20  and  O4_22 
REMARK    5  A    between atoms: C17_23  and  O5_24 
REMARK    6  A    between atoms: C20_29  and  C21_30 
REMARK    7  A    between atoms: C21_30  and  C22_31 
REMARK    8  A    between atoms: C22_31  and  O8_46 
ROOT
HETATM    1  C1  UNL     1      14.200   9.106   4.367  1.00  0.00     0.059 A 
HETATM    2  C2  UNL     1      15.250   8.208   4.621  1.00  0.00     0.049 A 
HETATM    3  N1  UNL     1      16.078   8.430   5.665  1.00  0.00    -0.340 N 
HETATM    4  H1  UNL     1      16.882   7.817   5.801  1.00  0.00     0.167 HD
HETATM    5  C3  UNL     1      15.868   9.450   6.541  1.00  0.00     0.138 C 
HETATM    6  C4  UNL     1      16.950   9.819   7.505  1.00  0.00     0.078 C 
HETATM    7  C5  UNL     1      17.888   8.913   7.863  1.00  0.00     0.043 C 
HETATM    8  N2  UNL     1      16.949  11.180   7.988  1.00  0.00    -0.322 N 
HETATM    9  C19 UNL     1      15.741  11.931   7.863  1.00  0.00     0.245 C 
HETATM   10  O6  UNL     1      15.766  13.189   7.927  1.00  0.00    -0.271 OA
HETATM   11  C20 UNL     1      14.480  11.159   7.580  1.00  0.00     0.190 C 
HETATM   12  N5  UNL     1      14.755  10.260   6.417  1.00  0.00    -0.283 N 
HETATM   13  C34 UNL     1      13.993  10.170   5.268  1.00  0.00     0.262 C 
HETATM   14  O9  UNL     1      13.142  11.055   4.976  1.00  0.00    -0.267 OA
HETATM   15  C35 UNL     1      15.481   7.129   3.761  1.00  0.00     0.030 A 
HETATM   16  C36 UNL     1      14.662   6.936   2.646  1.00  0.00     0.002 A 
HETATM   17  C37 UNL     1      13.627   7.839   2.370  1.00  0.00     0.001 A 
HETATM   18  C38 UNL     1      13.397   8.922   3.224  1.00  0.00     0.019 A 
HETATM   19  H17 UNL     1      17.814  11.686   8.287  1.00  0.00     0.169 HD
ENDROOT
BRANCH   7  20
HETATM   20  C6  UNL     1      19.096   9.190   8.731  1.00  0.00     0.183 C 
HETATM   21  O1  UNL     1      18.592   9.792   9.906  1.00  0.00    -0.372 OA
HETATM   22  C7  UNL     1      19.577   9.798  10.913  1.00  0.00     0.127 C 
HETATM   23  C8  UNL     1      18.951  10.377  12.190  1.00  0.00     0.040 C 
HETATM   24  C9  UNL     1      20.840  10.613  10.486  1.00  0.00     0.044 C 
HETATM   25  C10 UNL     1      22.107   9.836  10.899  1.00  0.00     0.017 C 
HETATM   26  C11 UNL     1      20.894  10.921   8.986  1.00  0.00    -0.031 C 
HETATM   27  C12 UNL     1      21.763  11.925   8.460  1.00  0.00    -0.020 C 
HETATM   28  C18 UNL     1      20.115  10.136   8.104  1.00  0.00     0.016 C 
HETATM   29  C13 UNL     1      22.560  12.860   9.347  1.00  0.00     0.052 C 
HETATM   30  C14 UNL     1      21.893  12.061   7.058  1.00  0.00     0.091 C 
HETATM   31  C15 UNL     1      21.233  11.174   6.191  1.00  0.00     0.104 C 
HETATM   32  C17 UNL     1      20.349  10.205   6.711  1.00  0.00     0.095 C 
BRANCH  30  33
HETATM   33  O2  UNL     1      22.709  13.053   6.495  1.00  0.00    -0.359 OA
HETATM   34  H14 UNL     1      22.808  13.986   6.873  1.00  0.00     0.217 HD
ENDBRANCH  30  33
BRANCH  31  35
HETATM   35  C16 UNL     1      21.513  11.254   4.738  1.00  0.00     0.181 C 
HETATM   36  O3  UNL     1      22.650  10.938   4.293  1.00  0.00    -0.646 OA
BRANCH  35  37
HETATM   37  O4  UNL     1      20.507  11.629   3.851  1.00  0.00    -0.772 OA
HETATM   38  H15 UNL     1      19.774  12.260   4.139  1.00  0.00     0.167 HD
ENDBRANCH  35  37
ENDBRANCH  31  35
BRANCH  32  39
HETATM   39  O5  UNL     1      19.683   9.318   5.858  1.00  0.00    -0.359 OA
HETATM   40  H16 UNL     1      18.757   9.477   5.491  1.00  0.00     0.217 HD
ENDBRANCH  32  39
ENDBRANCH   7  20
BRANCH  11  41
HETATM   41  C21 UNL     1      13.192  12.032   7.529  1.00  0.00     0.082 C 
BRANCH  41  42
HETATM   42  C22 UNL     1      11.925  11.322   8.093  1.00  0.00     0.133 C 
HETATM   43  C23 UNL     1      10.746  11.301   7.034  1.00  0.00     0.347 A 
HETATM   44  N3  UNL     1       9.553  11.736   7.775  1.00  0.00    -0.182 NA
HETATM   45  N4  UNL     1      10.457   9.988   6.388  1.00  0.00     0.124 N 
HETATM   46  C24 UNL     1       9.969  12.292   9.009  1.00  0.00     0.029 A 
HETATM   47  C33 UNL     1       8.575  10.729   7.663  1.00  0.00     0.245 A 
HETATM   48  C25 UNL     1      11.315  12.128   9.214  1.00  0.00     0.001 A 
HETATM   49  C28 UNL     1       9.150  12.900   9.965  1.00  0.00     0.025 A 
HETATM   50  C26 UNL     1      11.911  12.534  10.415  1.00  0.00     0.012 A 
HETATM   51  C27 UNL     1      11.112  13.166  11.385  1.00  0.00     0.001 A 
HETATM   52  C29 UNL     1       9.736  13.351  11.157  1.00  0.00     0.002 A 
HETATM   53  C30 UNL     1       9.090   9.675   6.795  1.00  0.00     0.234 A 
HETATM   54  O7  UNL     1       7.492  10.714   8.306  1.00  0.00    -0.276 OA
HETATM   55  C31 UNL     1       8.571   8.253   6.722  1.00  0.00     0.054 A 
HETATM   56  C32 UNL     1       8.197   9.269   5.637  1.00  0.00     0.054 A 
HETATM   57  H26 UNL     1      11.099   9.228   6.697  1.00  0.00     0.319 HD
BRANCH  42  58
HETATM   58  O8  UNL     1      12.245  10.040   8.578  1.00  0.00    -0.381 OA
HETATM   59  H31 UNL     1      12.540   9.479   7.810  1.00  0.00     0.211 HD
ENDBRANCH  42  58
ENDBRANCH  41  42
ENDBRANCH  11  41
TORSDOF 8
ENDMDL
MODEL 15
REMARK VINA RESULT:     -10.4      3.221      9.162
REMARK  8 active torsions:
REMARK  status: ('A' for Active; 'I' for Inactive)
REMARK    1  A    between atoms: C5_7  and  C6_8 
REMARK    2  A    between atoms: C14_17  and  O2_18 
REMARK    3  A    between atoms: C15_19  and  C16_20 
REMARK    4  A    between atoms: C16_20  and  O4_22 
REMARK    5  A    between atoms: C17_23  and  O5_24 
REMARK    6  A    between atoms: C20_29  and  C21_30 
REMARK    7  A    between atoms: C21_30  and  C22_31 
REMARK    8  A    between atoms: C22_31  and  O8_46 
ROOT
HETATM    1  C1  UNL     1      25.059   1.166  -8.925  1.00  0.00     0.059 A 
HETATM    2  C2  UNL     1      26.114   1.344  -8.014  1.00  0.00     0.049 A 
HETATM    3  N1  UNL     1      25.958   0.957  -6.729  1.00  0.00    -0.340 N 
HETATM    4  H1  UNL     1      26.698   1.156  -6.057  1.00  0.00     0.167 HD
HETATM    5  C3  UNL     1      24.838   0.309  -6.309  1.00  0.00     0.138 C 
HETATM    6  C4  UNL     1      24.594   0.151  -4.842  1.00  0.00     0.078 C 
HETATM    7  C5  UNL     1      25.625   0.181  -3.968  1.00  0.00     0.043 C 
HETATM    8  N2  UNL     1      23.219   0.003  -4.427  1.00  0.00    -0.322 N 
HETATM    9  C19 UNL     1      22.263  -0.393  -5.413  1.00  0.00     0.245 C 
HETATM   10  O6  UNL     1      21.034  -0.199  -5.220  1.00  0.00    -0.271 OA
HETATM   11  C20 UNL     1      22.801  -0.967  -6.696  1.00  0.00     0.190 C 
HETATM   12  N5  UNL     1      23.843  -0.025  -7.209  1.00  0.00    -0.283 N 
HETATM   13  C34 UNL     1      23.894   0.508  -8.482  1.00  0.00     0.262 C 
HETATM   14  O9  UNL     1      22.894   0.464  -9.251  1.00  0.00    -0.267 OA
HETATM   15  C35 UNL     1      27.295   1.979  -8.416  1.00  0.00     0.030 A 
HETATM   16  C36 UNL     1      27.431   2.435  -9.729  1.00  0.00     0.002 A 
HETATM   17  C37 UNL     1      26.377   2.284 -10.638  1.00  0.00     0.001 A 
HETATM   18  C38 UNL     1      25.193   1.655 -10.239  1.00  0.00     0.019 A 
HETATM   19  H17 UNL     1      22.863   0.305  -3.492  1.00  0.00     0.169 HD
ENDROOT
BRANCH   7  20
HETATM   20  C6  UNL     1      25.505   0.152  -2.460  1.00  0.00     0.183 C 
HETATM   21  O1  UNL     1      26.257   1.256  -1.996  1.00  0.00    -0.372 OA
HETATM   22  C7  UNL     1      25.957   1.519  -0.646  1.00  0.00     0.127 C 
HETATM   23  C8  UNL     1      26.728   2.777  -0.221  1.00  0.00     0.040 C 
HETATM   24  C9  UNL     1      26.307   0.307   0.275  1.00  0.00     0.044 C 
HETATM   25  C10 UNL     1      25.166   0.095   1.291  1.00  0.00     0.017 C 
HETATM   26  C11 UNL     1      26.557  -0.995  -0.493  1.00  0.00    -0.031 C 
HETATM   27  C12 UNL     1      27.214  -2.108   0.116  1.00  0.00    -0.020 C 
HETATM   28  C18 UNL     1      26.057  -1.112  -1.810  1.00  0.00     0.016 C 
HETATM   29  C13 UNL     1      27.851  -2.028   1.488  1.00  0.00     0.052 C 
HETATM   30  C14 UNL     1      27.278  -3.338  -0.580  1.00  0.00     0.091 C 
HETATM   31  C15 UNL     1      26.642  -3.488  -1.823  1.00  0.00     0.104 C 
HETATM   32  C17 UNL     1      26.024  -2.379  -2.439  1.00  0.00     0.095 C 
BRANCH  30  33
HETATM   33  O2  UNL     1      27.940  -4.449  -0.037  1.00  0.00    -0.359 OA
HETATM   34  H14 UNL     1      28.008  -5.347  -0.497  1.00  0.00     0.217 HD
ENDBRANCH  30  33
BRANCH  31  35
HETATM   35  C16 UNL     1      26.603  -4.831  -2.449  1.00  0.00     0.181 C 
HETATM   36  O3  UNL     1      27.223  -5.047  -3.526  1.00  0.00    -0.646 OA
BRANCH  35  37
HETATM   37  O4  UNL     1      25.924  -5.874  -1.824  1.00  0.00    -0.772 OA
HETATM   38  H15 UNL     1      25.715  -5.837  -0.838  1.00  0.00     0.167 HD
ENDBRANCH  35  37
ENDBRANCH  31  35
BRANCH  32  39
HETATM   39  O5  UNL     1      25.390  -2.514  -3.678  1.00  0.00    -0.359 OA
HETATM   40  H16 UNL     1      25.107  -1.736  -4.255  1.00  0.00     0.217 HD
ENDBRANCH  32  39
ENDBRANCH   7  20
BRANCH  11  41
HETATM   41  C21 UNL     1      21.705  -1.443  -7.694  1.00  0.00     0.082 C 
BRANCH  41  42
HETATM   42  C22 UNL     1      21.690  -2.984  -7.927  1.00  0.00     0.133 C 
HETATM   43  C23 UNL     1      21.604  -3.782  -6.560  1.00  0.00     0.347 A 
HETATM   44  N3  UNL     1      22.630  -4.829  -6.660  1.00  0.00    -0.182 NA
HETATM   45  N4  UNL     1      20.294  -4.422  -6.247  1.00  0.00     0.124 N 
HETATM   46  C24 UNL     1      23.478  -4.526  -7.752  1.00  0.00     0.029 A 
HETATM   47  C33 UNL     1      22.003  -6.078  -6.482  1.00  0.00     0.245 A 
HETATM   48  C25 UNL     1      23.015  -3.455  -8.473  1.00  0.00     0.001 A 
HETATM   49  C28 UNL     1      24.629  -5.224  -8.130  1.00  0.00     0.025 A 
HETATM   50  C26 UNL     1      23.666  -3.046  -9.645  1.00  0.00     0.012 A 
HETATM   51  C27 UNL     1      24.837  -3.720 -10.037  1.00  0.00     0.001 A 
HETATM   52  C29 UNL     1      25.318  -4.804  -9.278  1.00  0.00     0.002 A 
HETATM   53  C30 UNL     1      20.590  -5.851  -6.194  1.00  0.00     0.234 A 
HETATM   54  O7  UNL     1      22.567  -7.190  -6.659  1.00  0.00    -0.276 OA
HETATM   55  C31 UNL     1      19.481  -6.874  -6.334  1.00  0.00     0.054 A 
HETATM   56  C32 UNL     1      20.046  -6.532  -4.952  1.00  0.00     0.054 A 
HETATM   57  H26 UNL     1      19.564  -4.242  -6.969  1.00  0.00     0.319 HD
BRANCH  42  58
HETATM   58  O8  UNL     1      20.673  -3.341  -8.833  1.00  0.00    -0.381 OA
HETATM   59  H31 UNL     1      19.876  -2.773  -8.649  1.00  0.00     0.211 HD
ENDBRANCH  42  58
ENDBRANCH  41  42
ENDBRANCH  11  41
TORSDOF 8
ENDMDL
MODEL 16
REMARK VINA RESULT:     -10.4      3.682      8.855
REMARK  8 active torsions:
REMARK  status: ('A' for Active; 'I' for Inactive)
REMARK    1  A    between atoms: C5_7  and  C6_8 
REMARK    2  A    between atoms: C14_17  and  O2_18 
REMARK    3  A    between atoms: C15_19  and  C16_20 
REMARK    4  A    between atoms: C16_20  and  O4_22 
REMARK    5  A    between atoms: C17_23  and  O5_24 
REMARK    6  A    between atoms: C20_29  and  C21_30 
REMARK    7  A    between atoms: C21_30  and  C22_31 
REMARK    8  A    between atoms: C22_31  and  O8_46 
ROOT
HETATM    1  C1  UNL     1      25.538  -4.727  -3.863  1.00  0.00     0.059 A 
HETATM    2  C2  UNL     1      25.423  -3.432  -3.329  1.00  0.00     0.049 A 
HETATM    3  N1  UNL     1      24.657  -2.516  -3.960  1.00  0.00    -0.340 N 
HETATM    4  H1  UNL     1      24.637  -1.559  -3.609  1.00  0.00     0.167 HD
HETATM    5  C3  UNL     1      23.911  -2.837  -5.052  1.00  0.00     0.138 C 
HETATM    6  C4  UNL     1      23.306  -1.742  -5.869  1.00  0.00     0.078 C 
HETATM    7  C5  UNL     1      23.062  -0.531  -5.321  1.00  0.00     0.043 C 
HETATM    8  N2  UNL     1      23.037  -2.043  -7.256  1.00  0.00    -0.322 N 
HETATM    9  C19 UNL     1      22.968  -3.417  -7.640  1.00  0.00     0.245 C 
HETATM   10  O6  UNL     1      23.093  -3.746  -8.849  1.00  0.00    -0.271 OA
HETATM   11  C20 UNL     1      22.820  -4.430  -6.535  1.00  0.00     0.190 C 
HETATM   12  N5  UNL     1      23.874  -4.139  -5.515  1.00  0.00    -0.283 N 
HETATM   13  C34 UNL     1      24.776  -5.052  -5.003  1.00  0.00     0.262 C 
HETATM   14  O9  UNL     1      24.974  -6.164  -5.567  1.00  0.00    -0.267 OA
HETATM   15  C35 UNL     1      26.151  -3.072  -2.188  1.00  0.00     0.030 A 
HETATM   16  C36 UNL     1      26.991  -4.002  -1.573  1.00  0.00     0.002 A 
HETATM   17  C37 UNL     1      27.131  -5.286  -2.111  1.00  0.00     0.001 A 
HETATM   18  C38 UNL     1      26.411  -5.649  -3.254  1.00  0.00     0.019 A 
HETATM   19  H17 UNL     1      23.035  -1.321  -8.012  1.00  0.00     0.169 HD
ENDROOT
BRANCH   7  20
HETATM   20  C6  UNL     1      22.566   0.691  -6.063  1.00  0.00     0.183 C 
HETATM   21  O1  UNL     1      21.486   0.243  -6.856  1.00  0.00    -0.372 OA
HETATM   22  C7  UNL     1      20.745   1.340  -7.338  1.00  0.00     0.127 C 
HETATM   23  C8  UNL     1      19.536   0.797  -8.113  1.00  0.00     0.040 C 
HETATM   24  C9  UNL     1      21.614   2.278  -8.236  1.00  0.00     0.044 C 
HETATM   25  C10 UNL     1      21.314   3.747  -7.873  1.00  0.00     0.017 C 
HETATM   26  C11 UNL     1      23.119   2.019  -8.118  1.00  0.00    -0.031 C 
HETATM   27  C12 UNL     1      24.042   2.517  -9.088  1.00  0.00    -0.020 C 
HETATM   28  C18 UNL     1      23.602   1.332  -6.980  1.00  0.00     0.016 C 
HETATM   29  C13 UNL     1      23.593   3.185 -10.372  1.00  0.00     0.052 C 
HETATM   30  C14 UNL     1      25.430   2.389  -8.851  1.00  0.00     0.091 C 
HETATM   31  C15 UNL     1      25.901   1.844  -7.645  1.00  0.00     0.104 C 
HETATM   32  C17 UNL     1      24.990   1.320  -6.704  1.00  0.00     0.095 C 
BRANCH  30  33
HETATM   33  O2  UNL     1      26.374   2.834  -9.789  1.00  0.00    -0.359 OA
HETATM   34  H14 UNL     1      27.368   2.664  -9.714  1.00  0.00     0.217 HD
ENDBRANCH  30  33
BRANCH  31  35
HETATM   35  C16 UNL     1      27.357   1.865  -7.371  1.00  0.00     0.181 C 
HETATM   36  O3  UNL     1      27.824   2.629  -6.483  1.00  0.00    -0.646 OA
BRANCH  35  37
HETATM   37  O4  UNL     1      28.211   1.005  -8.058  1.00  0.00    -0.772 OA
HETATM   38  H15 UNL     1      29.032   1.358  -8.525  1.00  0.00     0.167 HD
ENDBRANCH  35  37
ENDBRANCH  31  35
BRANCH  32  39
HETATM   39  O5  UNL     1      25.445   0.772  -5.500  1.00  0.00    -0.359 OA
HETATM   40  H16 UNL     1      26.274   0.202  -5.418  1.00  0.00     0.217 HD
ENDBRANCH  32  39
ENDBRANCH   7  20
BRANCH  11  41
HETATM   41  C21 UNL     1      22.678  -5.899  -7.029  1.00  0.00     0.082 C 
BRANCH  41  42
HETATM   42  C22 UNL     1      21.282  -6.229  -7.638  1.00  0.00     0.133 C 
HETATM   43  C23 UNL     1      20.259  -5.035  -7.437  1.00  0.00     0.347 A 
HETATM   44  N3  UNL     1      19.028  -5.662  -6.936  1.00  0.00    -0.182 NA
HETATM   45  N4  UNL     1      19.930  -4.233  -8.650  1.00  0.00     0.124 N 
HETATM   46  C24 UNL     1      19.328  -6.986  -6.536  1.00  0.00     0.029 A 
HETATM   47  C33 UNL     1      17.978  -5.331  -7.814  1.00  0.00     0.245 A 
HETATM   48  C25 UNL     1      20.612  -7.339  -6.866  1.00  0.00     0.001 A 
HETATM   49  C28 UNL     1      18.453  -7.888  -5.922  1.00  0.00     0.025 A 
HETATM   50  C26 UNL     1      21.079  -8.639  -6.632  1.00  0.00     0.012 A 
HETATM   51  C27 UNL     1      20.225  -9.560  -5.998  1.00  0.00     0.001 A 
HETATM   52  C29 UNL     1      18.917  -9.182  -5.642  1.00  0.00     0.002 A 
HETATM   53  C30 UNL     1      18.497  -4.434  -8.842  1.00  0.00     0.234 A 
HETATM   54  O7  UNL     1      16.823  -5.830  -7.762  1.00  0.00    -0.276 OA
HETATM   55  C31 UNL     1      17.852  -4.158 -10.185  1.00  0.00     0.054 A 
HETATM   56  C32 UNL     1      17.730  -3.141  -9.046  1.00  0.00     0.054 A 
HETATM   57  H26 UNL     1      20.445  -4.543  -9.501  1.00  0.00     0.319 HD
BRANCH  42  58
HETATM   58  O8  UNL     1      21.405  -6.623  -8.983  1.00  0.00    -0.381 OA
HETATM   59  H31 UNL     1      21.993  -5.967  -9.449  1.00  0.00     0.211 HD
ENDBRANCH  42  58
ENDBRANCH  41  42
ENDBRANCH  11  41
TORSDOF 8
ENDMDL
MODEL 17
REMARK VINA RESULT:     -10.4     13.539     17.236
REMARK  8 active torsions:
REMARK  status: ('A' for Active; 'I' for Inactive)
REMARK    1  A    between atoms: C5_7  and  C6_8 
REMARK    2  A    between atoms: C14_17  and  O2_18 
REMARK    3  A    between atoms: C15_19  and  C16_20 
REMARK    4  A    between atoms: C16_20  and  O4_22 
REMARK    5  A    between atoms: C17_23  and  O5_24 
REMARK    6  A    between atoms: C20_29  and  C21_30 
REMARK    7  A    between atoms: C21_30  and  C22_31 
REMARK    8  A    between atoms: C22_31  and  O8_46 
ROOT
HETATM    1  C1  UNL     1      18.631  13.601  -9.966  1.00  0.00     0.059 A 
HETATM    2  C2  UNL     1      17.354  13.442 -10.532  1.00  0.00     0.049 A 
HETATM    3  N1  UNL     1      16.785  12.217 -10.560  1.00  0.00    -0.340 N 
HETATM    4  H1  UNL     1      15.892  12.095 -11.037  1.00  0.00     0.167 HD
HETATM    5  C3  UNL     1      17.373  11.142  -9.968  1.00  0.00     0.138 C 
HETATM    6  C4  UNL     1      16.849   9.773 -10.260  1.00  0.00     0.078 C 
HETATM    7  C5  UNL     1      15.573   9.599 -10.672  1.00  0.00     0.043 C 
HETATM    8  N2  UNL     1      17.780   8.679 -10.111  1.00  0.00    -0.322 N 
HETATM    9  C19 UNL     1      18.953   8.903  -9.327  1.00  0.00     0.245 C 
HETATM   10  O6  UNL     1      19.951   8.144  -9.445  1.00  0.00    -0.271 OA
HETATM   11  C20 UNL     1      18.958  10.114  -8.432  1.00  0.00     0.190 C 
HETATM   12  N5  UNL     1      18.553  11.289  -9.265  1.00  0.00    -0.283 N 
HETATM   13  C34 UNL     1      19.243  12.482  -9.367  1.00  0.00     0.262 C 
HETATM   14  O9  UNL     1      20.440  12.581  -8.979  1.00  0.00    -0.267 OA
HETATM   15  C35 UNL     1      16.703  14.531 -11.123  1.00  0.00     0.030 A 
HETATM   16  C36 UNL     1      17.320  15.784 -11.149  1.00  0.00     0.002 A 
HETATM   17  C37 UNL     1      18.602  15.947 -10.610  1.00  0.00     0.001 A 
HETATM   18  C38 UNL     1      19.258  14.861 -10.023  1.00  0.00     0.019 A 
HETATM   19  H17 UNL     1      17.717   7.790 -10.657  1.00  0.00     0.169 HD
ENDROOT
BRANCH   7  20
HETATM   20  C6  UNL     1      14.958   8.288 -11.112  1.00  0.00     0.183 C 
HETATM   21  O1  UNL     1      15.839   7.761 -12.083  1.00  0.00    -0.372 OA
HETATM   22  C7  UNL     1      15.544   6.405 -12.327  1.00  0.00     0.127 C 
HETATM   23  C8  UNL     1      16.582   5.859 -13.316  1.00  0.00     0.040 C 
HETATM   24  C9  UNL     1      14.092   6.216 -12.873  1.00  0.00     0.044 C 
HETATM   25  C10 UNL     1      13.440   5.008 -12.169  1.00  0.00     0.017 C 
HETATM   26  C11 UNL     1      13.204   7.452 -12.698  1.00  0.00    -0.031 C 
HETATM   27  C12 UNL     1      11.983   7.603 -13.423  1.00  0.00    -0.020 C 
HETATM   28  C18 UNL     1      13.575   8.424 -11.740  1.00  0.00     0.016 C 
HETATM   29  C13 UNL     1      11.564   6.650 -14.524  1.00  0.00     0.052 C 
HETATM   30  C14 UNL     1      11.122   8.681 -13.110  1.00  0.00     0.091 C 
HETATM   31  C15 UNL     1      11.426   9.552 -12.051  1.00  0.00     0.104 C 
HETATM   32  C17 UNL     1      12.649   9.422 -11.359  1.00  0.00     0.095 C 
BRANCH  30  33
HETATM   33  O2  UNL     1       9.928   8.889 -13.816  1.00  0.00    -0.359 OA
HETATM   34  H14 UNL     1       9.520   9.801 -13.980  1.00  0.00     0.217 HD
ENDBRANCH  30  33
BRANCH  31  35
HETATM   35  C16 UNL     1      10.429  10.574 -11.657  1.00  0.00     0.181 C 
HETATM   36  O3  UNL     1      10.054  11.447 -12.486  1.00  0.00    -0.646 OA
BRANCH  35  37
HETATM   37  O4  UNL     1       9.863  10.547 -10.384  1.00  0.00    -0.772 OA
HETATM   38  H15 UNL     1      10.151   9.857  -9.707  1.00  0.00     0.167 HD
ENDBRANCH  35  37
ENDBRANCH  31  35
BRANCH  32  39
HETATM   39  O5  UNL     1      12.965  10.285 -10.304  1.00  0.00    -0.359 OA
HETATM   40  H16 UNL     1      12.340  10.992  -9.946  1.00  0.00     0.217 HD
ENDBRANCH  32  39
ENDBRANCH   7  20
BRANCH  11  41
HETATM   41  C21 UNL     1      20.235  10.257  -7.554  1.00  0.00     0.082 C 
BRANCH  41  42
HETATM   42  C22 UNL     1      20.279   9.281  -6.340  1.00  0.00     0.133 C 
HETATM   43  C23 UNL     1      18.890   9.233  -5.577  1.00  0.00     0.347 A 
HETATM   44  N3  UNL     1      19.228   9.360  -4.153  1.00  0.00    -0.182 NA
HETATM   45  N4  UNL     1      18.071   8.002  -5.769  1.00  0.00     0.124 N 
HETATM   46  C24 UNL     1      20.574   9.785  -4.045  1.00  0.00     0.029 A 
HETATM   47  C33 UNL     1      18.707   8.240  -3.476  1.00  0.00     0.245 A 
HETATM   48  C25 UNL     1      21.200   9.806  -5.266  1.00  0.00     0.001 A 
HETATM   49  C28 UNL     1      21.253  10.109  -2.867  1.00  0.00     0.025 A 
HETATM   50  C26 UNL     1      22.562  10.117  -5.367  1.00  0.00     0.012 A 
HETATM   51  C27 UNL     1      23.263  10.465  -4.198  1.00  0.00     0.001 A 
HETATM   52  C29 UNL     1      22.607  10.463  -2.952  1.00  0.00     0.002 A 
HETATM   53  C30 UNL     1      17.969   7.421  -4.433  1.00  0.00     0.234 A 
HETATM   54  O7  UNL     1      18.948   7.960  -2.272  1.00  0.00    -0.276 OA
HETATM   55  C31 UNL     1      17.601   5.962  -4.252  1.00  0.00     0.054 A 
HETATM   56  C32 UNL     1      16.549   7.057  -4.042  1.00  0.00     0.054 A 
HETATM   57  H26 UNL     1      18.507   7.314  -6.418  1.00  0.00     0.319 HD
BRANCH  42  58
HETATM   58  O8  UNL     1      20.727   8.008  -6.739  1.00  0.00    -0.381 OA
HETATM   59  H31 UNL     1      21.017   7.509  -5.928  1.00  0.00     0.211 HD
ENDBRANCH  42  58
ENDBRANCH  41  42
ENDBRANCH  11  41
TORSDOF 8
ENDMDL
MODEL 18
REMARK VINA RESULT:     -10.3     11.127     13.283
REMARK  8 active torsions:
REMARK  status: ('A' for Active; 'I' for Inactive)
REMARK    1  A    between atoms: C5_7  and  C6_8 
REMARK    2  A    between atoms: C14_17  and  O2_18 
REMARK    3  A    between atoms: C15_19  and  C16_20 
REMARK    4  A    between atoms: C16_20  and  O4_22 
REMARK    5  A    between atoms: C17_23  and  O5_24 
REMARK    6  A    between atoms: C20_29  and  C21_30 
REMARK    7  A    between atoms: C21_30  and  C22_31 
REMARK    8  A    between atoms: C22_31  and  O8_46 
ROOT
HETATM    1  C1  UNL     1      20.040   8.898  -4.724  1.00  0.00     0.059 A 
HETATM    2  C2  UNL     1      19.758   8.836  -6.099  1.00  0.00     0.049 A 
HETATM    3  N1  UNL     1      19.105   7.764  -6.598  1.00  0.00    -0.340 N 
HETATM    4  H1  UNL     1      18.969   7.689  -7.605  1.00  0.00     0.167 HD
HETATM    5  C3  UNL     1      18.624   6.780  -5.790  1.00  0.00     0.138 C 
HETATM    6  C4  UNL     1      18.159   5.497  -6.400  1.00  0.00     0.078 C 
HETATM    7  C5  UNL     1      17.753   5.458  -7.689  1.00  0.00     0.043 C 
HETATM    8  N2  UNL     1      18.206   4.326  -5.557  1.00  0.00    -0.322 N 
HETATM    9  C19 UNL     1      18.279   4.523  -4.144  1.00  0.00     0.245 C 
HETATM   10  O6  UNL     1      18.673   3.593  -3.392  1.00  0.00    -0.271 OA
HETATM   11  C20 UNL     1      17.943   5.896  -3.626  1.00  0.00     0.190 C 
HETATM   12  N5  UNL     1      18.742   6.883  -4.416  1.00  0.00    -0.283 N 
HETATM   13  C34 UNL     1      19.553   7.871  -3.892  1.00  0.00     0.262 C 
HETATM   14  O9  UNL     1      19.914   7.848  -2.683  1.00  0.00    -0.267 OA
HETATM   15  C35 UNL     1      20.210   9.844  -6.960  1.00  0.00     0.030 A 
HETATM   16  C36 UNL     1      20.940  10.921  -6.452  1.00  0.00     0.002 A 
HETATM   17  C37 UNL     1      21.246  10.981  -5.087  1.00  0.00     0.001 A 
HETATM   18  C38 UNL     1      20.802   9.973  -4.225  1.00  0.00     0.019 A 
HETATM   19  H17 UNL     1      18.333   3.355  -5.924  1.00  0.00     0.169 HD
ENDROOT
BRANCH   7  20
HETATM   20  C6  UNL     1      17.374   4.211  -8.458  1.00  0.00     0.183 C 
HETATM   21  O1  UNL     1      18.520   3.862  -9.208  1.00  0.00    -0.372 OA
HETATM   22  C7  UNL     1      18.399   2.551  -9.707  1.00  0.00     0.127 C 
HETATM   23  C8  UNL     1      19.703   2.192 -10.432  1.00  0.00     0.040 C 
HETATM   24  C9  UNL     1      17.167   2.402 -10.656  1.00  0.00     0.044 C 
HETATM   25  C10 UNL     1      16.435   1.083 -10.334  1.00  0.00     0.017 C 
HETATM   26  C11 UNL     1      16.179   3.571 -10.569  1.00  0.00    -0.031 C 
HETATM   27  C12 UNL     1      15.193   3.793 -11.577  1.00  0.00    -0.020 C 
HETATM   28  C18 UNL     1      16.207   4.397  -9.422  1.00  0.00     0.016 C 
HETATM   29  C13 UNL     1      15.157   3.004 -12.871  1.00  0.00     0.052 C 
HETATM   30  C14 UNL     1      14.206   4.785 -11.372  1.00  0.00     0.091 C 
HETATM   31  C15 UNL     1      14.149   5.495 -10.161  1.00  0.00     0.104 C 
HETATM   32  C17 UNL     1      15.144   5.299  -9.180  1.00  0.00     0.095 C 
BRANCH  30  33
HETATM   33  O2  UNL     1      13.236   5.061 -12.347  1.00  0.00    -0.359 OA
HETATM   34  H14 UNL     1      12.729   4.349 -12.858  1.00  0.00     0.217 HD
ENDBRANCH  30  33
BRANCH  31  35
HETATM   35  C16 UNL     1      13.013   6.415  -9.925  1.00  0.00     0.181 C 
HETATM   36  O3  UNL     1      13.061   7.604 -10.345  1.00  0.00    -0.646 OA
BRANCH  35  37
HETATM   37  O4  UNL     1      11.864   5.959  -9.282  1.00  0.00    -0.772 OA
HETATM   38  H15 UNL     1      11.806   5.948  -8.275  1.00  0.00     0.167 HD
ENDBRANCH  35  37
ENDBRANCH  31  35
BRANCH  32  39
HETATM   39  O5  UNL     1      15.101   6.001  -7.971  1.00  0.00    -0.359 OA
HETATM   40  H16 UNL     1      14.566   6.845  -7.829  1.00  0.00     0.217 HD
ENDBRANCH  32  39
ENDBRANCH   7  20
BRANCH  11  41
HETATM   41  C21 UNL     1      17.973   6.021  -2.075  1.00  0.00     0.082 C 
BRANCH  41  42
HETATM   42  C22 UNL     1      16.565   6.180  -1.426  1.00  0.00     0.133 C 
HETATM   43  C23 UNL     1      16.667   6.497   0.124  1.00  0.00     0.347 A 
HETATM   44  N3  UNL     1      15.710   5.587   0.768  1.00  0.00    -0.182 NA
HETATM   45  N4  UNL     1      16.353   7.895   0.537  1.00  0.00     0.124 N 
HETATM   46  C24 UNL     1      15.326   4.600  -0.172  1.00  0.00     0.029 A 
HETATM   47  C33 UNL     1      14.793   6.362   1.504  1.00  0.00     0.245 A 
HETATM   48  C25 UNL     1      15.828   4.863  -1.421  1.00  0.00     0.001 A 
HETATM   49  C28 UNL     1      14.499   3.498   0.070  1.00  0.00     0.025 A 
HETATM   50  C26 UNL     1      15.493   4.051  -2.512  1.00  0.00     0.012 A 
HETATM   51  C27 UNL     1      14.679   2.926  -2.292  1.00  0.00     0.001 A 
HETATM   52  C29 UNL     1      14.187   2.650  -1.002  1.00  0.00     0.002 A 
HETATM   53  C30 UNL     1      15.187   7.765   1.406  1.00  0.00     0.234 A 
HETATM   54  O7  UNL     1      13.754   5.907   2.050  1.00  0.00    -0.276 OA
HETATM   55  C31 UNL     1      14.295   8.957   1.685  1.00  0.00     0.054 A 
HETATM   56  C32 UNL     1      15.331   8.508   2.721  1.00  0.00     0.054 A 
HETATM   57  H26 UNL     1      16.123   8.520  -0.265  1.00  0.00     0.319 HD
BRANCH  42  58
HETATM   58  O8  UNL     1      15.797   7.128  -2.128  1.00  0.00    -0.381 OA
HETATM   59  H31 UNL     1      15.190   6.641  -2.750  1.00  0.00     0.211 HD
ENDBRANCH  42  58
ENDBRANCH  41  42
ENDBRANCH  11  41
TORSDOF 8
ENDMDL
MODEL 19
REMARK VINA RESULT:     -10.3      2.585      5.171
REMARK  8 active torsions:
REMARK  status: ('A' for Active; 'I' for Inactive)
REMARK    1  A    between atoms: C5_7  and  C6_8 
REMARK    2  A    between atoms: C14_17  and  O2_18 
REMARK    3  A    between atoms: C15_19  and  C16_20 
REMARK    4  A    between atoms: C16_20  and  O4_22 
REMARK    5  A    between atoms: C17_23  and  O5_24 
REMARK    6  A    between atoms: C20_29  and  C21_30 
REMARK    7  A    between atoms: C21_30  and  C22_31 
REMARK    8  A    between atoms: C22_31  and  O8_46 
ROOT
HETATM    1  C1  UNL     1      25.104   0.011  -6.700  1.00  0.00     0.059 A 
HETATM    2  C2  UNL     1      23.725   0.192  -6.898  1.00  0.00     0.049 A 
HETATM    3  N1  UNL     1      22.874  -0.821  -6.627  1.00  0.00    -0.340 N 
HETATM    4  H1  UNL     1      21.884  -0.709  -6.842  1.00  0.00     0.167 HD
HETATM    5  C3  UNL     1      23.304  -1.987  -6.073  1.00  0.00     0.138 C 
HETATM    6  C4  UNL     1      22.385  -3.165  -6.048  1.00  0.00     0.078 C 
HETATM    7  C5  UNL     1      21.045  -2.992  -6.098  1.00  0.00     0.043 C 
HETATM    8  N2  UNL     1      23.004  -4.469  -6.004  1.00  0.00    -0.322 N 
HETATM    9  C19 UNL     1      24.366  -4.547  -5.578  1.00  0.00     0.245 C 
HETATM   10  O6  UNL     1      25.059  -5.562  -5.849  1.00  0.00    -0.271 OA
HETATM   11  C20 UNL     1      24.932  -3.343  -4.873  1.00  0.00     0.190 C 
HETATM   12  N5  UNL     1      24.630  -2.145  -5.717  1.00  0.00    -0.283 N 
HETATM   13  C34 UNL     1      25.548  -1.203  -6.140  1.00  0.00     0.262 C 
HETATM   14  O9  UNL     1      26.789  -1.427  -6.084  1.00  0.00    -0.267 OA
HETATM   15  C35 UNL     1      23.240   1.390  -7.437  1.00  0.00     0.030 A 
HETATM   16  C36 UNL     1      24.127   2.413  -7.776  1.00  0.00     0.002 A 
HETATM   17  C37 UNL     1      25.505   2.234  -7.605  1.00  0.00     0.001 A 
HETATM   18  C38 UNL     1      25.995   1.038  -7.072  1.00  0.00     0.019 A 
HETATM   19  H17 UNL     1      22.564  -5.331  -6.400  1.00  0.00     0.169 HD
ENDROOT
BRANCH   7  20
HETATM   20  C6  UNL     1      20.014  -4.095  -6.199  1.00  0.00     0.183 C 
HETATM   21  O1  UNL     1      20.322  -5.001  -5.159  1.00  0.00    -0.372 OA
HETATM   22  C7  UNL     1      19.250  -5.890  -4.951  1.00  0.00     0.127 C 
HETATM   23  C8  UNL     1      19.597  -6.788  -3.755  1.00  0.00     0.040 C 
HETATM   24  C9  UNL     1      18.945  -6.741  -6.225  1.00  0.00     0.044 C 
HETATM   25  C10 UNL     1      17.419  -6.814  -6.433  1.00  0.00     0.017 C 
HETATM   26  C11 UNL     1      19.611  -6.204  -7.496  1.00  0.00    -0.031 C 
HETATM   27  C12 UNL     1      19.742  -7.009  -8.669  1.00  0.00    -0.020 C 
HETATM   28  C18 UNL     1      20.036  -4.856  -7.521  1.00  0.00     0.016 C 
HETATM   29  C13 UNL     1      19.389  -8.482  -8.690  1.00  0.00     0.052 C 
HETATM   30  C14 UNL     1      20.217  -6.418  -9.863  1.00  0.00     0.091 C 
HETATM   31  C15 UNL     1      20.490  -5.041  -9.918  1.00  0.00     0.104 C 
HETATM   32  C17 UNL     1      20.393  -4.255  -8.750  1.00  0.00     0.095 C 
BRANCH  30  33
HETATM   33  O2  UNL     1      20.392  -7.174 -11.030  1.00  0.00    -0.359 OA
HETATM   34  H14 UNL     1      19.917  -6.985 -11.904  1.00  0.00     0.217 HD
ENDBRANCH  30  33
BRANCH  31  35
HETATM   35  C16 UNL     1      20.840  -4.433 -11.223  1.00  0.00     0.181 C 
HETATM   36  O3  UNL     1      20.206  -3.428 -11.645  1.00  0.00    -0.646 OA
BRANCH  35  37
HETATM   37  O4  UNL     1      21.904  -4.938 -11.967  1.00  0.00    -0.772 OA
HETATM   38  H15 UNL     1      22.154  -5.914 -11.913  1.00  0.00     0.167 HD
ENDBRANCH  35  37
ENDBRANCH  31  35
BRANCH  32  39
HETATM   39  O5  UNL     1      20.665  -2.883  -8.791  1.00  0.00    -0.359 OA
HETATM   40  H16 UNL     1      20.860  -2.372  -9.639  1.00  0.00     0.217 HD
ENDBRANCH  32  39
ENDBRANCH   7  20
BRANCH  11  41
HETATM   41  C21 UNL     1      26.395  -3.524  -4.373  1.00  0.00     0.082 C 
BRANCH  41  42
HETATM   42  C22 UNL     1      26.522  -3.656  -2.826  1.00  0.00     0.133 C 
HETATM   43  C23 UNL     1      25.605  -4.819  -2.261  1.00  0.00     0.347 A 
HETATM   44  N3  UNL     1      24.907  -4.235  -1.107  1.00  0.00    -0.182 NA
HETATM   45  N4  UNL     1      26.303  -6.061  -1.822  1.00  0.00     0.124 N 
HETATM   46  C24 UNL     1      25.073  -2.829  -1.145  1.00  0.00     0.029 A 
HETATM   47  C33 UNL     1      25.193  -5.023   0.025  1.00  0.00     0.245 A 
HETATM   48  C25 UNL     1      25.941  -2.446  -2.137  1.00  0.00     0.001 A 
HETATM   49  C28 UNL     1      24.492  -1.899  -0.278  1.00  0.00     0.025 A 
HETATM   50  C26 UNL     1      26.306  -1.102  -2.288  1.00  0.00     0.012 A 
HETATM   51  C27 UNL     1      25.721  -0.144  -1.440  1.00  0.00     0.001 A 
HETATM   52  C29 UNL     1      24.813  -0.543  -0.441  1.00  0.00     0.002 A 
HETATM   53  C30 UNL     1      26.010  -6.158  -0.394  1.00  0.00     0.234 A 
HETATM   54  O7  UNL     1      24.880  -4.715   1.205  1.00  0.00    -0.276 OA
HETATM   55  C31 UNL     1      26.870  -7.014   0.513  1.00  0.00     0.054 A 
HETATM   56  C32 UNL     1      25.511  -7.528   0.025  1.00  0.00     0.054 A 
HETATM   57  H26 UNL     1      27.335  -6.026  -1.966  1.00  0.00     0.319 HD
BRANCH  42  58
HETATM   58  O8  UNL     1      27.870  -3.791  -2.445  1.00  0.00    -0.381 OA
HETATM   59  H31 UNL     1      28.073  -3.099  -1.758  1.00  0.00     0.211 HD
ENDBRANCH  42  58
ENDBRANCH  41  42
ENDBRANCH  11  41
TORSDOF 8
ENDMDL
MODEL 20
REMARK VINA RESULT:     -10.2     11.313     15.494
REMARK  8 active torsions:
REMARK  status: ('A' for Active; 'I' for Inactive)
REMARK    1  A    between atoms: C5_7  and  C6_8 
REMARK    2  A    between atoms: C14_17  and  O2_18 
REMARK    3  A    between atoms: C15_19  and  C16_20 
REMARK    4  A    between atoms: C16_20  and  O4_22 
REMARK    5  A    between atoms: C17_23  and  O5_24 
REMARK    6  A    between atoms: C20_29  and  C21_30 
REMARK    7  A    between atoms: C21_30  and  C22_31 
REMARK    8  A    between atoms: C22_31  and  O8_46 
ROOT
HETATM    1  C1  UNL     1      19.886  11.746  -9.056  1.00  0.00     0.059 A 
HETATM    2  C2  UNL     1      18.504  11.758  -9.312  1.00  0.00     0.049 A 
HETATM    3  N1  UNL     1      17.814  10.597  -9.296  1.00  0.00    -0.340 N 
HETATM    4  H1  UNL     1      16.828  10.602  -9.554  1.00  0.00     0.167 HD
HETATM    5  C3  UNL     1      18.400   9.421  -8.943  1.00  0.00     0.138 C 
HETATM    6  C4  UNL     1      17.677   8.139  -9.203  1.00  0.00     0.078 C 
HETATM    7  C5  UNL     1      16.329   8.120  -9.312  1.00  0.00     0.043 C 
HETATM    8  N2  UNL     1      18.492   6.957  -9.363  1.00  0.00    -0.322 N 
HETATM    9  C19 UNL     1      19.830   6.998  -8.865  1.00  0.00     0.245 C 
HETATM   10  O6  UNL     1      20.686   6.169  -9.273  1.00  0.00    -0.271 OA
HETATM   11  C20 UNL     1      20.172   8.110  -7.909  1.00  0.00     0.190 C 
HETATM   12  N5  UNL     1      19.719   9.392  -8.531  1.00  0.00    -0.283 N 
HETATM   13  C34 UNL     1      20.493  10.524  -8.705  1.00  0.00     0.262 C 
HETATM   14  O9  UNL     1      21.751  10.478  -8.606  1.00  0.00    -0.267 OA
HETATM   15  C35 UNL     1      17.859  12.953  -9.649  1.00  0.00     0.030 A 
HETATM   16  C36 UNL     1      18.586  14.143  -9.727  1.00  0.00     0.002 A 
HETATM   17  C37 UNL     1      19.967  14.138  -9.497  1.00  0.00     0.001 A 
HETATM   18  C38 UNL     1      20.618  12.945  -9.166  1.00  0.00     0.019 A 
HETATM   19  H17 UNL     1      18.209   6.135  -9.943  1.00  0.00     0.169 HD
ENDROOT
BRANCH   7  20
HETATM   20  C6  UNL     1      15.490   6.919  -9.690  1.00  0.00     0.183 C 
HETATM   21  O1  UNL     1      16.391   5.986 -10.251  1.00  0.00    -0.372 OA
HETATM   22  C7  UNL     1      15.788   4.716 -10.341  1.00  0.00     0.127 C 
HETATM   23  C8  UNL     1      16.834   3.725 -10.869  1.00  0.00     0.040 C 
HETATM   24  C9  UNL     1      14.522   4.738 -11.256  1.00  0.00     0.044 C 
HETATM   25  C10 UNL     1      13.399   3.919 -10.588  1.00  0.00     0.017 C 
HETATM   26  C11 UNL     1      14.011   6.150 -11.565  1.00  0.00    -0.031 C 
HETATM   27  C12 UNL     1      13.100   6.398 -12.636  1.00  0.00    -0.020 C 
HETATM   28  C18 UNL     1      14.401   7.212 -10.716  1.00  0.00     0.016 C 
HETATM   29  C13 UNL     1      12.706   5.329 -13.636  1.00  0.00     0.052 C 
HETATM   30  C14 UNL     1      12.536   7.687 -12.779  1.00  0.00     0.091 C 
HETATM   31  C15 UNL     1      12.810   8.694 -11.839  1.00  0.00     0.104 C 
HETATM   32  C17 UNL     1      13.736   8.458 -10.801  1.00  0.00     0.095 C 
BRANCH  30  33
HETATM   33  O2  UNL     1      11.661   7.987 -13.834  1.00  0.00    -0.359 OA
HETATM   34  H14 UNL     1      11.203   8.881 -13.951  1.00  0.00     0.217 HD
ENDBRANCH  30  33
BRANCH  31  35
HETATM   35  C16 UNL     1      12.083   9.981 -11.938  1.00  0.00     0.181 C 
HETATM   36  O3  UNL     1      11.365  10.380 -10.981  1.00  0.00    -0.646 OA
BRANCH  35  37
HETATM   37  O4  UNL     1      12.230  10.783 -13.068  1.00  0.00    -0.772 OA
HETATM   38  H15 UNL     1      11.483  11.390 -13.370  1.00  0.00     0.167 HD
ENDBRANCH  35  37
ENDBRANCH  31  35
BRANCH  32  39
HETATM   39  O5  UNL     1      14.020   9.453  -9.860  1.00  0.00    -0.359 OA
HETATM   40  H16 UNL     1      14.900   9.533  -9.371  1.00  0.00     0.217 HD
ENDBRANCH  32  39
ENDBRANCH   7  20
BRANCH  11  41
HETATM   41  C21 UNL     1      21.624   8.052  -7.352  1.00  0.00     0.082 C 
BRANCH  41  42
HETATM   42  C22 UNL     1      21.709   7.642  -5.851  1.00  0.00     0.133 C 
HETATM   43  C23 UNL     1      20.342   7.028  -5.334  1.00  0.00     0.347 A 
HETATM   44  N3  UNL     1      20.075   7.702  -4.056  1.00  0.00    -0.182 NA
HETATM   45  N4  UNL     1      20.318   5.553  -5.114  1.00  0.00     0.124 N 
HETATM   46  C24 UNL     1      20.935   8.821  -3.948  1.00  0.00     0.029 A 
HETATM   47  C33 UNL     1      19.949   6.716  -3.057  1.00  0.00     0.245 A 
HETATM   48  C25 UNL     1      21.848   8.860  -4.971  1.00  0.00     0.001 A 
HETATM   49  C28 UNL     1      20.936   9.774  -2.925  1.00  0.00     0.025 A 
HETATM   50  C26 UNL     1      22.845   9.844  -5.003  1.00  0.00     0.012 A 
HETATM   51  C27 UNL     1      22.857  10.826  -3.995  1.00  0.00     0.001 A 
HETATM   52  C29 UNL     1      21.902  10.791  -2.962  1.00  0.00     0.002 A 
HETATM   53  C30 UNL     1      20.057   5.402  -3.685  1.00  0.00     0.234 A 
HETATM   54  O7  UNL     1      19.870   6.958  -1.824  1.00  0.00    -0.276 OA
HETATM   55  C31 UNL     1      20.383   4.105  -2.974  1.00  0.00     0.054 A 
HETATM   56  C32 UNL     1      18.939   4.423  -3.378  1.00  0.00     0.054 A 
HETATM   57  H26 UNL     1      21.218   5.086  -5.357  1.00  0.00     0.319 HD
BRANCH  42  58
HETATM   58  O8  UNL     1      22.808   6.792  -5.626  1.00  0.00    -0.381 OA
HETATM   59  H31 UNL     1      23.237   7.055  -4.767  1.00  0.00     0.211 HD
ENDBRANCH  42  58
ENDBRANCH  41  42
ENDBRANCH  11  41
TORSDOF 8
ENDMDL
