REMARK  5 active torsions:
REMARK  status: ('A' for Active; 'I' for Inactive)
REMARK    1  A    between atoms: C1_1  and  C2_2 
REMARK    2  A    between atoms: C2_2  and  C3_3 
REMARK    3  A    between atoms: C17_20  and  C18_21 
REMARK    4  A    between atoms: C22_28  and  C23_29 
REMARK    5  A    between atoms: C23_29  and  C24_30 
ROOT
HETATM    1  C1  UNL     1       1.653  -0.811   3.032  1.00  0.00     0.181 C 
HETATM    2  C9  UNL     1       2.041  -1.466   1.721  1.00  0.00     0.245 C 
HETATM    3  O1  UNL     1       3.179  -1.280   1.214  1.00  0.00    -0.271 OA
HETATM    4  N1  UNL     1       1.096  -2.324   1.086  1.00  0.00    -0.314 N 
HETATM    5  C10 UNL     1       1.200  -3.113  -0.102  1.00  0.00     0.202 C 
HETATM    6  N2  UNL     1       2.041  -2.779  -1.230  1.00  0.00    -0.367 N 
HETATM    7  C11 UNL     1       1.448  -3.706  -2.160  1.00  0.00     0.036 A 
HETATM    8  C12 UNL     1       2.073  -4.266  -3.272  1.00  0.00     0.030 A 
HETATM    9  C13 UNL     1       1.382  -5.249  -4.000  1.00  0.00     0.002 A 
HETATM   10  C14 UNL     1       0.096  -5.670  -3.599  1.00  0.00     0.001 A 
HETATM   11  C15 UNL     1      -0.520  -5.105  -2.471  1.00  0.00     0.010 A 
HETATM   12  C16 UNL     1       0.174  -4.125  -1.763  1.00  0.00    -0.018 A 
HETATM   13  C17 UNL     1      -0.241  -3.262  -0.602  1.00  0.00     0.045 C 
HETATM   14  C38 UNL     1      -0.829  -3.759   0.756  1.00  0.00     0.054 C 
HETATM   15  C39 UNL     1       0.084  -3.056   1.843  1.00  0.00     0.182 C 
HETATM   16  C40 UNL     1      -0.541  -2.131   2.837  1.00  0.00     0.241 C 
HETATM   17  O4  UNL     1      -1.689  -2.369   3.297  1.00  0.00    -0.271 OA
HETATM   18  N6  UNL     1       0.217  -1.011   3.329  1.00  0.00    -0.346 N 
HETATM   19  H13 UNL     1       3.065  -2.581  -1.179  1.00  0.00     0.161 HD
HETATM   20  H36 UNL     1      -0.217  -0.455   4.100  1.00  0.00     0.163 HD
ENDROOT
BRANCH  13  21
HETATM   21  C18 UNL     1      -1.058  -1.977  -1.186  1.00  0.00     0.045 A 
HETATM   22  C19 UNL     1      -0.282  -1.036  -2.196  1.00  0.00     0.202 A 
HETATM   23  N3  UNL     1      -0.154   0.253  -1.537  1.00  0.00    -0.314 N 
HETATM   24  N5  UNL     1      -1.121  -0.920  -3.383  1.00  0.00    -0.367 N 
HETATM   25  C20 UNL     1      -0.676   0.250  -0.191  1.00  0.00     0.182 C 
HETATM   26  C30 UNL     1       0.435   1.418  -2.129  1.00  0.00     0.245 C 
HETATM   27  C21 UNL     1      -1.328   1.565   0.123  1.00  0.00     0.241 C 
HETATM   28  C31 UNL     1      -1.619  -0.946  -0.154  1.00  0.00     0.054 C 
HETATM   29  O2  UNL     1      -2.200   1.643   1.029  1.00  0.00    -0.271 OA
HETATM   30  N4  UNL     1      -0.890   2.753  -0.551  1.00  0.00    -0.346 N 
HETATM   31  C22 UNL     1       0.272   2.764  -1.454  1.00  0.00     0.181 C 
HETATM   32  H18 UNL     1      -1.302   3.659  -0.238  1.00  0.00     0.163 HD
HETATM   33  O3  UNL     1       1.134   1.306  -3.173  1.00  0.00    -0.271 OA
HETATM   34  C32 UNL     1      -2.208  -1.805  -3.262  1.00  0.00     0.036 A 
HETATM   35  H29 UNL     1      -0.893  -0.362  -4.234  1.00  0.00     0.161 HD
HETATM   36  C33 UNL     1      -3.192  -2.022  -4.225  1.00  0.00     0.030 A 
HETATM   37  C37 UNL     1      -2.223  -2.440  -2.047  1.00  0.00    -0.018 A 
HETATM   38  C34 UNL     1      -4.233  -2.913  -3.925  1.00  0.00     0.002 A 
HETATM   39  C35 UNL     1      -4.280  -3.547  -2.671  1.00  0.00     0.001 A 
HETATM   40  C36 UNL     1      -3.280  -3.301  -1.717  1.00  0.00     0.010 A 
BRANCH  31  41
HETATM   41  C23 UNL     1       0.122   3.891  -2.500  1.00  0.00     0.073 C 
BRANCH  41  42
HETATM   42  C24 UNL     1       0.237   5.260  -1.878  1.00  0.00    -0.056 A 
HETATM   43  C25 UNL     1       1.499   5.770  -1.523  1.00  0.00     0.007 A 
HETATM   44  C26 UNL     1       1.610   7.039  -0.948  1.00  0.00     0.001 A 
HETATM   45  C27 UNL     1       0.465   7.807  -0.720  1.00  0.00     0.000 A 
HETATM   46  C28 UNL     1      -0.794   7.306  -1.064  1.00  0.00     0.001 A 
HETATM   47  C29 UNL     1      -0.910   6.037  -1.641  1.00  0.00     0.007 A 
ENDBRANCH  41  42
ENDBRANCH  31  41
ENDBRANCH  13  21
BRANCH   1  48
HETATM   48  C2  UNL     1       1.989   0.695   2.993  1.00  0.00     0.073 C 
BRANCH  48  49
HETATM   49  C3  UNL     1       1.792   1.357   4.333  1.00  0.00    -0.056 A 
HETATM   50  C4  UNL     1       0.656   2.146   4.579  1.00  0.00     0.007 A 
HETATM   51  C5  UNL     1       0.471   2.749   5.827  1.00  0.00     0.001 A 
HETATM   52  C6  UNL     1       1.421   2.571   6.837  1.00  0.00     0.000 A 
HETATM   53  C7  UNL     1       2.551   1.782   6.602  1.00  0.00     0.001 A 
HETATM   54  C8  UNL     1       2.738   1.176   5.356  1.00  0.00     0.007 A 
ENDBRANCH  48  49
ENDBRANCH   1  48
TORSDOF 5
