MODEL 1
REMARK VINA RESULT:     -12.2      0.000      0.000
REMARK  5 active torsions:
REMARK  status: ('A' for Active; 'I' for Inactive)
REMARK    1  A    between atoms: C1_1  and  C2_2 
REMARK    2  A    between atoms: C2_2  and  C3_3 
REMARK    3  A    between atoms: C17_20  and  C18_21 
REMARK    4  A    between atoms: C22_28  and  C23_29 
REMARK    5  A    between atoms: C23_29  and  C24_30 
ROOT
HETATM    1  C1  UNL     1      19.920   9.554  -6.209  1.00  0.00     0.181 C 
HETATM    2  C9  UNL     1      20.039   8.055  -6.405  1.00  0.00     0.245 C 
HETATM    3  O1  UNL     1      20.129   7.556  -7.558  1.00  0.00    -0.271 OA
HETATM    4  N1  UNL     1      20.077   7.222  -5.249  1.00  0.00    -0.314 N 
HETATM    5  C10 UNL     1      20.243   5.807  -5.121  1.00  0.00     0.202 C 
HETATM    6  N2  UNL     1      19.826   4.845  -6.117  1.00  0.00    -0.367 N 
HETATM    7  C11 UNL     1      19.934   3.679  -5.278  1.00  0.00     0.036 A 
HETATM    8  C12 UNL     1      20.158   2.374  -5.711  1.00  0.00     0.030 A 
HETATM    9  C13 UNL     1      20.359   1.376  -4.743  1.00  0.00     0.002 A 
HETATM   10  C14 UNL     1      20.354   1.696  -3.368  1.00  0.00     0.001 A 
HETATM   11  C15 UNL     1      20.137   3.017  -2.944  1.00  0.00     0.010 A 
HETATM   12  C16 UNL     1      19.931   3.995  -3.915  1.00  0.00    -0.018 A 
HETATM   13  C17 UNL     1      19.568   5.450  -3.793  1.00  0.00     0.045 C 
HETATM   14  C38 UNL     1      20.318   6.522  -2.941  1.00  0.00     0.054 C 
HETATM   15  C39 UNL     1      20.587   7.699  -3.966  1.00  0.00     0.182 C 
HETATM   16  C40 UNL     1      20.017   9.054  -3.692  1.00  0.00     0.241 C 
HETATM   17  O4  UNL     1      19.946   9.490  -2.513  1.00  0.00    -0.271 OA
HETATM   18  N6  UNL     1      19.631   9.891  -4.797  1.00  0.00    -0.346 N 
HETATM   19  H13 UNL     1      20.100   4.865  -7.124  1.00  0.00     0.161 HD
HETATM   20  H36 UNL     1      19.340  10.867  -4.565  1.00  0.00     0.163 HD
ENDROOT
BRANCH  13  21
HETATM   21  C18 UNL     1      17.949   5.562  -3.624  1.00  0.00     0.045 A 
HETATM   22  C19 UNL     1      17.413   6.579  -2.536  1.00  0.00     0.202 A 
HETATM   23  N3  UNL     1      16.742   5.779  -1.525  1.00  0.00    -0.314 N 
HETATM   24  N5  UNL     1      16.458   7.447  -3.215  1.00  0.00    -0.367 N 
HETATM   25  C20 UNL     1      16.843   4.361  -1.772  1.00  0.00     0.182 C 
HETATM   26  C30 UNL     1      16.056   6.312  -0.384  1.00  0.00     0.245 C 
HETATM   27  C21 UNL     1      15.578   3.664  -1.364  1.00  0.00     0.241 C 
HETATM   28  C31 UNL     1      17.169   4.259  -3.257  1.00  0.00     0.054 C 
HETATM   29  O2  UNL     1      15.274   2.550  -1.868  1.00  0.00    -0.271 OA
HETATM   30  N4  UNL     1      14.759   4.228  -0.331  1.00  0.00    -0.346 N 
HETATM   31  C22 UNL     1      15.173   5.406   0.448  1.00  0.00     0.181 C 
HETATM   32  H18 UNL     1      13.939   3.668  -0.011  1.00  0.00     0.163 HD
HETATM   33  O3  UNL     1      16.239   7.514  -0.047  1.00  0.00    -0.271 OA
HETATM   34  C32 UNL     1      16.493   7.174  -4.594  1.00  0.00     0.036 A 
HETATM   35  H29 UNL     1      15.922   8.224  -2.770  1.00  0.00     0.161 HD
HETATM   36  C33 UNL     1      15.765   7.845  -5.576  1.00  0.00     0.030 A 
HETATM   37  C37 UNL     1      17.325   6.126  -4.891  1.00  0.00    -0.018 A 
HETATM   38  C34 UNL     1      15.887   7.416  -6.906  1.00  0.00     0.002 A 
HETATM   39  C35 UNL     1      16.711   6.321  -7.222  1.00  0.00     0.001 A 
HETATM   40  C36 UNL     1      17.425   5.659  -6.210  1.00  0.00     0.010 A 
BRANCH  31  41
HETATM   41  C23 UNL     1      13.931   6.168   0.962  1.00  0.00     0.073 C 
BRANCH  41  42
HETATM   42  C24 UNL     1      14.257   7.056   2.137  1.00  0.00    -0.056 A 
HETATM   43  C25 UNL     1      13.702   8.346   2.222  1.00  0.00     0.007 A 
HETATM   44  C26 UNL     1      14.000   9.171   3.309  1.00  0.00     0.001 A 
HETATM   45  C27 UNL     1      14.855   8.718   4.318  1.00  0.00     0.000 A 
HETATM   46  C28 UNL     1      15.415   7.440   4.240  1.00  0.00     0.001 A 
HETATM   47  C29 UNL     1      15.119   6.610   3.153  1.00  0.00     0.007 A 
ENDBRANCH  41  42
ENDBRANCH  31  41
ENDBRANCH  13  21
BRANCH   1  48
HETATM   48  C2  UNL     1      18.822  10.124  -7.133  1.00  0.00     0.073 C 
BRANCH  48  49
HETATM   49  C3  UNL     1      19.357  11.179  -8.068  1.00  0.00    -0.056 A 
HETATM   50  C4  UNL     1      18.617  11.576  -9.194  1.00  0.00     0.007 A 
HETATM   51  C5  UNL     1      19.111  12.562 -10.053  1.00  0.00     0.001 A 
HETATM   52  C6  UNL     1      20.350  13.157  -9.795  1.00  0.00     0.000 A 
HETATM   53  C7  UNL     1      21.090  12.771  -8.674  1.00  0.00     0.001 A 
HETATM   54  C8  UNL     1      20.598  11.787  -7.812  1.00  0.00     0.007 A 
ENDBRANCH  48  49
ENDBRANCH   1  48
TORSDOF 5
ENDMDL
MODEL 2
REMARK VINA RESULT:     -12.2      3.010      5.616
REMARK  5 active torsions:
REMARK  status: ('A' for Active; 'I' for Inactive)
REMARK    1  A    between atoms: C1_1  and  C2_2 
REMARK    2  A    between atoms: C2_2  and  C3_3 
REMARK    3  A    between atoms: C17_20  and  C18_21 
REMARK    4  A    between atoms: C22_28  and  C23_29 
REMARK    5  A    between atoms: C23_29  and  C24_30 
ROOT
HETATM    1  C1  UNL     1      18.081  11.128  -9.364  1.00  0.00     0.181 C 
HETATM    2  C9  UNL     1      18.578   9.703  -9.514  1.00  0.00     0.245 C 
HETATM    3  O1  UNL     1      17.879   8.829 -10.092  1.00  0.00    -0.271 OA
HETATM    4  N1  UNL     1      19.871   9.380  -9.010  1.00  0.00    -0.314 N 
HETATM    5  C10 UNL     1      20.617   8.161  -9.060  1.00  0.00     0.202 C 
HETATM    6  N2  UNL     1      20.021   6.844  -9.101  1.00  0.00    -0.367 N 
HETATM    7  C11 UNL     1      21.221   6.109  -8.790  1.00  0.00     0.036 A 
HETATM    8  C12 UNL     1      21.490   4.789  -9.145  1.00  0.00     0.030 A 
HETATM    9  C13 UNL     1      22.766   4.271  -8.865  1.00  0.00     0.002 A 
HETATM   10  C14 UNL     1      23.753   5.077  -8.259  1.00  0.00     0.001 A 
HETATM   11  C15 UNL     1      23.473   6.409  -7.915  1.00  0.00     0.010 A 
HETATM   12  C16 UNL     1      22.201   6.907  -8.191  1.00  0.00    -0.018 A 
HETATM   13  C17 UNL     1      21.560   8.227  -7.854  1.00  0.00     0.045 C 
HETATM   14  C38 UNL     1      22.133   9.642  -8.179  1.00  0.00     0.054 C 
HETATM   15  C39 UNL     1      20.935  10.376  -8.910  1.00  0.00     0.182 C 
HETATM   16  C40 UNL     1      20.372  11.628  -8.318  1.00  0.00     0.241 C 
HETATM   17  O4  UNL     1      21.125  12.457  -7.743  1.00  0.00    -0.271 OA
HETATM   18  N6  UNL     1      18.973  11.919  -8.488  1.00  0.00    -0.346 N 
HETATM   19  H13 UNL     1      19.308   6.527  -9.795  1.00  0.00     0.161 HD
HETATM   20  H36 UNL     1      18.645  12.853  -8.153  1.00  0.00     0.163 HD
ENDROOT
BRANCH  13  21
HETATM   21  C18 UNL     1      20.977   8.140  -6.334  1.00  0.00     0.045 A 
HETATM   22  C19 UNL     1      20.839   6.693  -5.704  1.00  0.00     0.202 A 
HETATM   23  N3  UNL     1      19.418   6.474  -5.494  1.00  0.00    -0.314 N 
HETATM   24  N5  UNL     1      21.543   6.728  -4.427  1.00  0.00    -0.367 N 
HETATM   25  C20 UNL     1      18.603   7.561  -5.983  1.00  0.00     0.182 C 
HETATM   26  C30 UNL     1      18.853   5.307  -4.882  1.00  0.00     0.245 C 
HETATM   27  C21 UNL     1      17.422   7.779  -5.082  1.00  0.00     0.241 C 
HETATM   28  C31 UNL     1      19.560   8.743  -6.066  1.00  0.00     0.054 C 
HETATM   29  O2  UNL     1      16.841   8.897  -5.054  1.00  0.00    -0.271 OA
HETATM   30  N4  UNL     1      16.900   6.684  -4.318  1.00  0.00    -0.346 N 
HETATM   31  C22 UNL     1      17.394   5.306  -4.476  1.00  0.00     0.181 C 
HETATM   32  H18 UNL     1      16.024   6.853  -3.777  1.00  0.00     0.163 HD
HETATM   33  O3  UNL     1      19.557   4.270  -4.741  1.00  0.00    -0.271 OA
HETATM   34  C32 UNL     1      22.214   7.959  -4.309  1.00  0.00     0.036 A 
HETATM   35  H29 UNL     1      21.632   5.929  -3.763  1.00  0.00     0.161 HD
HETATM   36  C33 UNL     1      23.043   8.336  -3.254  1.00  0.00     0.030 A 
HETATM   37  C37 UNL     1      21.943   8.797  -5.360  1.00  0.00    -0.018 A 
HETATM   38  C34 UNL     1      23.604   9.621  -3.274  1.00  0.00     0.002 A 
HETATM   39  C35 UNL     1      23.310  10.503  -4.329  1.00  0.00     0.001 A 
HETATM   40  C36 UNL     1      22.463  10.099  -5.372  1.00  0.00     0.010 A 
BRANCH  31  41
HETATM   41  C23 UNL     1      17.186   4.514  -3.166  1.00  0.00     0.073 C 
BRANCH  41  42
HETATM   42  C24 UNL     1      16.500   5.339  -2.107  1.00  0.00    -0.056 A 
HETATM   43  C25 UNL     1      17.259   5.986  -1.115  1.00  0.00     0.007 A 
HETATM   44  C26 UNL     1      16.627   6.754  -0.132  1.00  0.00     0.001 A 
HETATM   45  C27 UNL     1      15.236   6.879  -0.130  1.00  0.00     0.000 A 
HETATM   46  C28 UNL     1      14.473   6.235  -1.108  1.00  0.00     0.001 A 
HETATM   47  C29 UNL     1      15.101   5.467  -2.094  1.00  0.00     0.007 A 
ENDBRANCH  41  42
ENDBRANCH  31  41
ENDBRANCH  13  21
BRANCH   1  48
HETATM   48  C2  UNL     1      16.640  11.132  -8.809  1.00  0.00     0.073 C 
BRANCH  48  49
HETATM   49  C3  UNL     1      15.609  11.253  -9.902  1.00  0.00    -0.056 A 
HETATM   50  C4  UNL     1      14.388  10.566  -9.811  1.00  0.00     0.007 A 
HETATM   51  C5  UNL     1      13.429  10.690 -10.821  1.00  0.00     0.001 A 
HETATM   52  C6  UNL     1      13.686  11.500 -11.932  1.00  0.00     0.000 A 
HETATM   53  C7  UNL     1      14.896  12.192 -12.027  1.00  0.00     0.001 A 
HETATM   54  C8  UNL     1      15.856  12.072 -11.018  1.00  0.00     0.007 A 
ENDBRANCH  48  49
ENDBRANCH   1  48
TORSDOF 5
ENDMDL
MODEL 3
REMARK VINA RESULT:     -12.1      2.492      8.491
REMARK  5 active torsions:
REMARK  status: ('A' for Active; 'I' for Inactive)
REMARK    1  A    between atoms: C1_1  and  C2_2 
REMARK    2  A    between atoms: C2_2  and  C3_3 
REMARK    3  A    between atoms: C17_20  and  C18_21 
REMARK    4  A    between atoms: C22_28  and  C23_29 
REMARK    5  A    between atoms: C23_29  and  C24_30 
ROOT
HETATM    1  C1  UNL     1      16.892   5.350  -1.392  1.00  0.00     0.181 C 
HETATM    2  C9  UNL     1      17.839   6.501  -1.668  1.00  0.00     0.245 C 
HETATM    3  O1  UNL     1      17.678   7.621  -1.115  1.00  0.00    -0.271 OA
HETATM    4  N1  UNL     1      18.937   6.279  -2.550  1.00  0.00    -0.314 N 
HETATM    5  C10 UNL     1      20.009   7.140  -2.944  1.00  0.00     0.202 C 
HETATM    6  N2  UNL     1      19.911   8.581  -3.014  1.00  0.00    -0.367 N 
HETATM    7  C11 UNL     1      21.119   8.793  -3.771  1.00  0.00     0.036 A 
HETATM    8  C12 UNL     1      21.894   9.951  -3.773  1.00  0.00     0.030 A 
HETATM    9  C13 UNL     1      23.110   9.937  -4.477  1.00  0.00     0.002 A 
HETATM   10  C14 UNL     1      23.540   8.772  -5.146  1.00  0.00     0.001 A 
HETATM   11  C15 UNL     1      22.755   7.608  -5.129  1.00  0.00     0.010 A 
HETATM   12  C16 UNL     1      21.548   7.638  -4.433  1.00  0.00    -0.018 A 
HETATM   13  C17 UNL     1      20.447   6.619  -4.317  1.00  0.00     0.045 C 
HETATM   14  C38 UNL     1      20.608   5.130  -3.876  1.00  0.00     0.054 C 
HETATM   15  C39 UNL     1      19.536   4.958  -2.723  1.00  0.00     0.182 C 
HETATM   16  C40 UNL     1      18.445   3.949  -2.881  1.00  0.00     0.241 C 
HETATM   17  O4  UNL     1      18.670   2.851  -3.455  1.00  0.00    -0.271 OA
HETATM   18  N6  UNL     1      17.157   4.207  -2.294  1.00  0.00    -0.346 N 
HETATM   19  H13 UNL     1      19.596   9.201  -2.235  1.00  0.00     0.161 HD
HETATM   20  H36 UNL     1      16.460   3.430  -2.336  1.00  0.00     0.163 HD
ENDROOT
BRANCH  13  21
HETATM   21  C18 UNL     1      19.472   6.767  -5.615  1.00  0.00     0.045 A 
HETATM   22  C19 UNL     1      19.675   8.053  -6.518  1.00  0.00     0.202 A 
HETATM   23  N3  UNL     1      18.450   8.827  -6.408  1.00  0.00    -0.314 N 
HETATM   24  N5  UNL     1      19.855   7.576  -7.884  1.00  0.00    -0.367 N 
HETATM   25  C20 UNL     1      17.503   8.251  -5.483  1.00  0.00     0.182 C 
HETATM   26  C30 UNL     1      18.186  10.043  -7.118  1.00  0.00     0.245 C 
HETATM   27  C21 UNL     1      16.099   8.449  -5.976  1.00  0.00     0.241 C 
HETATM   28  C31 UNL     1      17.929   6.793  -5.363  1.00  0.00     0.054 C 
HETATM   29  O2  UNL     1      15.174   7.687  -5.587  1.00  0.00    -0.271 OA
HETATM   30  N4  UNL     1      15.796   9.566  -6.823  1.00  0.00    -0.346 N 
HETATM   31  C22 UNL     1      16.783  10.613  -7.130  1.00  0.00     0.181 C 
HETATM   32  H18 UNL     1      14.793   9.722  -7.068  1.00  0.00     0.163 HD
HETATM   33  O3  UNL     1      19.133  10.661  -7.677  1.00  0.00    -0.271 OA
HETATM   34  C32 UNL     1      19.949   6.172  -7.869  1.00  0.00     0.036 A 
HETATM   35  H29 UNL     1      20.008   8.179  -8.721  1.00  0.00     0.161 HD
HETATM   36  C33 UNL     1      20.186   5.361  -8.977  1.00  0.00     0.030 A 
HETATM   37  C37 UNL     1      19.751   5.656  -6.615  1.00  0.00    -0.018 A 
HETATM   38  C34 UNL     1      20.209   3.970  -8.792  1.00  0.00     0.002 A 
HETATM   39  C35 UNL     1      19.975   3.424  -7.518  1.00  0.00     0.001 A 
HETATM   40  C36 UNL     1      19.730   4.266  -6.422  1.00  0.00     0.010 A 
BRANCH  31  41
HETATM   41  C23 UNL     1      16.463  11.262  -8.495  1.00  0.00     0.073 C 
BRANCH  41  42
HETATM   42  C24 UNL     1      15.798  10.293  -9.441  1.00  0.00    -0.056 A 
HETATM   43  C25 UNL     1      16.512   9.185  -9.931  1.00  0.00     0.007 A 
HETATM   44  C26 UNL     1      15.899   8.283 -10.806  1.00  0.00     0.001 A 
HETATM   45  C27 UNL     1      14.573   8.482 -11.201  1.00  0.00     0.000 A 
HETATM   46  C28 UNL     1      13.858   9.584 -10.724  1.00  0.00     0.001 A 
HETATM   47  C29 UNL     1      14.467  10.488  -9.847  1.00  0.00     0.007 A 
ENDBRANCH  41  42
ENDBRANCH  31  41
ENDBRANCH  13  21
BRANCH   1  48
HETATM   48  C2  UNL     1      15.429   5.820  -1.536  1.00  0.00     0.073 C 
BRANCH  48  49
HETATM   49  C3  UNL     1      14.803   6.148  -0.204  1.00  0.00    -0.056 A 
HETATM   50  C4  UNL     1      14.539   5.133   0.730  1.00  0.00     0.007 A 
HETATM   51  C5  UNL     1      13.969   5.443   1.969  1.00  0.00     0.001 A 
HETATM   52  C6  UNL     1      13.656   6.768   2.282  1.00  0.00     0.000 A 
HETATM   53  C7  UNL     1      13.921   7.785   1.360  1.00  0.00     0.001 A 
HETATM   54  C8  UNL     1      14.493   7.479   0.121  1.00  0.00     0.007 A 
ENDBRANCH  48  49
ENDBRANCH   1  48
TORSDOF 5
ENDMDL
MODEL 4
REMARK VINA RESULT:     -11.9      2.775      8.669
REMARK  5 active torsions:
REMARK  status: ('A' for Active; 'I' for Inactive)
REMARK    1  A    between atoms: C1_1  and  C2_2 
REMARK    2  A    between atoms: C2_2  and  C3_3 
REMARK    3  A    between atoms: C17_20  and  C18_21 
REMARK    4  A    between atoms: C22_28  and  C23_29 
REMARK    5  A    between atoms: C23_29  and  C24_30 
ROOT
HETATM    1  C1  UNL     1      17.369   5.162  -2.363  1.00  0.00     0.181 C 
HETATM    2  C9  UNL     1      18.071   6.505  -2.338  1.00  0.00     0.245 C 
HETATM    3  O1  UNL     1      17.543   7.504  -1.781  1.00  0.00    -0.271 OA
HETATM    4  N1  UNL     1      19.361   6.607  -2.936  1.00  0.00    -0.314 N 
HETATM    5  C10 UNL     1      20.273   7.706  -3.011  1.00  0.00     0.202 C 
HETATM    6  N2  UNL     1      19.874   9.096  -3.025  1.00  0.00    -0.367 N 
HETATM    7  C11 UNL     1      21.142   9.629  -3.453  1.00  0.00     0.036 A 
HETATM    8  C12 UNL     1      21.618  10.915  -3.204  1.00  0.00     0.030 A 
HETATM    9  C13 UNL     1      22.932  11.225  -3.591  1.00  0.00     0.002 A 
HETATM   10  C14 UNL     1      23.753  10.250  -4.197  1.00  0.00     0.001 A 
HETATM   11  C15 UNL     1      23.265   8.955  -4.435  1.00  0.00     0.010 A 
HETATM   12  C16 UNL     1      21.956   8.663  -4.053  1.00  0.00    -0.018 A 
HETATM   13  C17 UNL     1      21.115   7.433  -4.262  1.00  0.00     0.045 C 
HETATM   14  C38 UNL     1      21.502   5.971  -3.877  1.00  0.00     0.054 C 
HETATM   15  C39 UNL     1      20.264   5.463  -3.030  1.00  0.00     0.182 C 
HETATM   16  C40 UNL     1      19.492   4.274  -3.503  1.00  0.00     0.241 C 
HETATM   17  O4  UNL     1      20.081   3.312  -4.064  1.00  0.00    -0.271 OA
HETATM   18  N6  UNL     1      18.080   4.199  -3.233  1.00  0.00    -0.346 N 
HETATM   19  H13 UNL     1      19.260   9.553  -2.314  1.00  0.00     0.161 HD
HETATM   20  H36 UNL     1      17.603   3.305  -3.485  1.00  0.00     0.163 HD
ENDROOT
BRANCH  13  21
HETATM   21  C18 UNL     1      20.450   7.516  -5.749  1.00  0.00     0.045 A 
HETATM   22  C19 UNL     1      19.769   8.887  -6.152  1.00  0.00     0.202 A 
HETATM   23  N3  UNL     1      18.353   8.607  -6.319  1.00  0.00    -0.314 N 
HETATM   24  N5  UNL     1      20.362   9.287  -7.423  1.00  0.00    -0.367 N 
HETATM   25  C20 UNL     1      18.009   7.242  -5.996  1.00  0.00     0.182 C 
HETATM   26  C30 UNL     1      17.375   9.564  -6.745  1.00  0.00     0.245 C 
HETATM   27  C21 UNL     1      16.932   6.740  -6.914  1.00  0.00     0.241 C 
HETATM   28  C31 UNL     1      19.327   6.486  -6.098  1.00  0.00     0.054 C 
HETATM   29  O2  UNL     1      16.786   5.504  -7.108  1.00  0.00    -0.271 OA
HETATM   30  N4  UNL     1      16.010   7.669  -7.501  1.00  0.00    -0.346 N 
HETATM   31  C22 UNL     1      15.990   9.095  -7.139  1.00  0.00     0.181 C 
HETATM   32  H18 UNL     1      15.221   7.272  -8.056  1.00  0.00     0.163 HD
HETATM   33  O3  UNL     1      17.654  10.794  -6.731  1.00  0.00    -0.271 OA
HETATM   34  C32 UNL     1      21.419   8.411  -7.729  1.00  0.00     0.036 A 
HETATM   35  H29 UNL     1      20.122  10.149  -7.959  1.00  0.00     0.161 HD
HETATM   36  C33 UNL     1      22.264   8.510  -8.833  1.00  0.00     0.030 A 
HETATM   37  C37 UNL     1      21.527   7.394  -6.816  1.00  0.00    -0.018 A 
HETATM   38  C34 UNL     1      23.246   7.524  -9.011  1.00  0.00     0.002 A 
HETATM   39  C35 UNL     1      23.348   6.457  -8.101  1.00  0.00     0.001 A 
HETATM   40  C36 UNL     1      22.476   6.379  -7.004  1.00  0.00     0.010 A 
BRANCH  31  41
HETATM   41  C23 UNL     1      15.436   9.934  -8.312  1.00  0.00     0.073 C 
BRANCH  41  42
HETATM   42  C24 UNL     1      15.712   9.291  -9.648  1.00  0.00    -0.056 A 
HETATM   43  C25 UNL     1      16.998   9.362 -10.213  1.00  0.00     0.007 A 
HETATM   44  C26 UNL     1      17.258   8.765 -11.450  1.00  0.00     0.001 A 
HETATM   45  C27 UNL     1      16.239   8.097 -12.133  1.00  0.00     0.000 A 
HETATM   46  C28 UNL     1      14.956   8.026 -11.582  1.00  0.00     0.001 A 
HETATM   47  C29 UNL     1      14.691   8.620 -10.344  1.00  0.00     0.007 A 
ENDBRANCH  41  42
ENDBRANCH  31  41
ENDBRANCH  13  21
BRANCH   1  48
HETATM   48  C2  UNL     1      15.909   5.334  -2.832  1.00  0.00     0.073 C 
BRANCH  48  49
HETATM   49  C3  UNL     1      14.918   4.918  -1.775  1.00  0.00    -0.056 A 
HETATM   50  C4  UNL     1      14.378   3.622  -1.774  1.00  0.00     0.007 A 
HETATM   51  C5  UNL     1      13.468   3.236  -0.785  1.00  0.00     0.001 A 
HETATM   52  C6  UNL     1      13.089   4.144   0.209  1.00  0.00     0.000 A 
HETATM   53  C7  UNL     1      13.627   5.434   0.218  1.00  0.00     0.001 A 
HETATM   54  C8  UNL     1      14.539   5.822  -0.768  1.00  0.00     0.007 A 
ENDBRANCH  48  49
ENDBRANCH   1  48
TORSDOF 5
ENDMDL
MODEL 5
REMARK VINA RESULT:     -11.6      3.074      8.951
REMARK  5 active torsions:
REMARK  status: ('A' for Active; 'I' for Inactive)
REMARK    1  A    between atoms: C1_1  and  C2_2 
REMARK    2  A    between atoms: C2_2  and  C3_3 
REMARK    3  A    between atoms: C17_20  and  C18_21 
REMARK    4  A    between atoms: C22_28  and  C23_29 
REMARK    5  A    between atoms: C23_29  and  C24_30 
ROOT
HETATM    1  C1  UNL     1      16.725   6.592  -2.650  1.00  0.00     0.181 C 
HETATM    2  C9  UNL     1      16.661   7.523  -3.845  1.00  0.00     0.245 C 
HETATM    3  O1  UNL     1      15.556   7.858  -4.349  1.00  0.00    -0.271 OA
HETATM    4  N1  UNL     1      17.883   8.036  -4.371  1.00  0.00    -0.314 N 
HETATM    5  C10 UNL     1      18.128   8.963  -5.431  1.00  0.00     0.202 C 
HETATM    6  N2  UNL     1      17.263   9.137  -6.577  1.00  0.00    -0.367 N 
HETATM    7  C11 UNL     1      18.196   9.889  -7.377  1.00  0.00     0.036 A 
HETATM    8  C12 UNL     1      17.870  10.795  -8.384  1.00  0.00     0.030 A 
HETATM    9  C13 UNL     1      18.908  11.532  -8.979  1.00  0.00     0.002 A 
HETATM   10  C14 UNL     1      20.243  11.370  -8.549  1.00  0.00     0.001 A 
HETATM   11  C15 UNL     1      20.558  10.461  -7.527  1.00  0.00     0.010 A 
HETATM   12  C16 UNL     1      19.519   9.730  -6.952  1.00  0.00    -0.018 A 
HETATM   13  C17 UNL     1      19.534   8.620  -5.936  1.00  0.00     0.045 C 
HETATM   14  C38 UNL     1      20.219   8.659  -4.534  1.00  0.00     0.054 C 
HETATM   15  C39 UNL     1      19.070   8.212  -3.539  1.00  0.00     0.182 C 
HETATM   16  C40 UNL     1      19.262   6.989  -2.702  1.00  0.00     0.241 C 
HETATM   17  O4  UNL     1      20.397   6.704  -2.237  1.00  0.00    -0.271 OA
HETATM   18  N6  UNL     1      18.118   6.185  -2.359  1.00  0.00    -0.346 N 
HETATM   19  H13 UNL     1      16.240   9.339  -6.533  1.00  0.00     0.161 HD
HETATM   20  H36 UNL     1      18.281   5.404  -1.685  1.00  0.00     0.163 HD
ENDROOT
BRANCH  13  21
HETATM   21  C18 UNL     1      19.821   7.217  -6.715  1.00  0.00     0.045 A 
HETATM   22  C19 UNL     1      19.032   6.976  -8.067  1.00  0.00     0.202 A 
HETATM   23  N3  UNL     1      18.160   5.837  -7.834  1.00  0.00    -0.314 N 
HETATM   24  N5  UNL     1      20.031   6.654  -9.079  1.00  0.00    -0.367 N 
HETATM   25  C20 UNL     1      18.220   5.353  -6.475  1.00  0.00     0.182 C 
HETATM   26  C30 UNL     1      17.310   5.243  -8.823  1.00  0.00     0.245 C 
HETATM   27  C21 UNL     1      18.097   3.858  -6.443  1.00  0.00     0.241 C 
HETATM   28  C31 UNL     1      19.542   5.888  -5.941  1.00  0.00     0.054 C 
HETATM   29  O2  UNL     1      18.542   3.203  -5.464  1.00  0.00    -0.271 OA
HETATM   30  N4  UNL     1      17.388   3.182  -7.491  1.00  0.00    -0.346 N 
HETATM   31  C22 UNL     1      16.655   3.906  -8.542  1.00  0.00     0.181 C 
HETATM   32  H18 UNL     1      17.244   2.154  -7.384  1.00  0.00     0.163 HD
HETATM   33  O3  UNL     1      17.066   5.862  -9.894  1.00  0.00    -0.271 OA
HETATM   34  C32 UNL     1      21.313   6.839  -8.530  1.00  0.00     0.036 A 
HETATM   35  H29 UNL     1      19.832   6.437 -10.079  1.00  0.00     0.161 HD
HETATM   36  C33 UNL     1      22.520   6.689  -9.211  1.00  0.00     0.030 A 
HETATM   37  C37 UNL     1      21.262   7.168  -7.200  1.00  0.00    -0.018 A 
HETATM   38  C34 UNL     1      23.714   6.872  -8.499  1.00  0.00     0.002 A 
HETATM   39  C35 UNL     1      23.679   7.178  -7.128  1.00  0.00     0.001 A 
HETATM   40  C36 UNL     1      22.448   7.313  -6.466  1.00  0.00     0.010 A 
BRANCH  31  41
HETATM   41  C23 UNL     1      16.579   3.049  -9.825  1.00  0.00     0.073 C 
BRANCH  41  42
HETATM   42  C24 UNL     1      15.156   2.809 -10.262  1.00  0.00    -0.056 A 
HETATM   43  C25 UNL     1      14.284   3.896 -10.455  1.00  0.00     0.007 A 
HETATM   44  C26 UNL     1      12.965   3.678 -10.862  1.00  0.00     0.001 A 
HETATM   45  C27 UNL     1      12.504   2.376 -11.076  1.00  0.00     0.000 A 
HETATM   46  C28 UNL     1      13.361   1.289 -10.880  1.00  0.00     0.001 A 
HETATM   47  C29 UNL     1      14.683   1.502 -10.475  1.00  0.00     0.007 A 
ENDBRANCH  41  42
ENDBRANCH  31  41
ENDBRANCH  13  21
BRANCH   1  48
HETATM   48  C2  UNL     1      15.843   5.349  -2.897  1.00  0.00     0.073 C 
BRANCH  48  49
HETATM   49  C3  UNL     1      14.927   5.061  -1.735  1.00  0.00    -0.056 A 
HETATM   50  C4  UNL     1      14.677   6.044  -0.763  1.00  0.00     0.007 A 
HETATM   51  C5  UNL     1      13.818   5.777   0.307  1.00  0.00     0.001 A 
HETATM   52  C6  UNL     1      13.205   4.526   0.416  1.00  0.00     0.000 A 
HETATM   53  C7  UNL     1      13.444   3.545  -0.551  1.00  0.00     0.001 A 
HETATM   54  C8  UNL     1      14.301   3.809  -1.623  1.00  0.00     0.007 A 
ENDBRANCH  48  49
ENDBRANCH   1  48
TORSDOF 5
ENDMDL
MODEL 6
REMARK VINA RESULT:     -11.5     10.486     13.770
REMARK  5 active torsions:
REMARK  status: ('A' for Active; 'I' for Inactive)
REMARK    1  A    between atoms: C1_1  and  C2_2 
REMARK    2  A    between atoms: C2_2  and  C3_3 
REMARK    3  A    between atoms: C17_20  and  C18_21 
REMARK    4  A    between atoms: C22_28  and  C23_29 
REMARK    5  A    between atoms: C23_29  and  C24_30 
ROOT
HETATM    1  C1  UNL     1      20.481  -3.634  -7.531  1.00  0.00     0.181 C 
HETATM    2  C9  UNL     1      21.785  -3.999  -8.212  1.00  0.00     0.245 C 
HETATM    3  O1  UNL     1      22.250  -5.167  -8.141  1.00  0.00    -0.271 OA
HETATM    4  N1  UNL     1      22.463  -2.993  -8.962  1.00  0.00    -0.314 N 
HETATM    5  C10 UNL     1      23.656  -3.058  -9.748  1.00  0.00     0.202 C 
HETATM    6  N2  UNL     1      24.750  -3.969  -9.494  1.00  0.00    -0.367 N 
HETATM    7  C11 UNL     1      25.711  -3.317 -10.347  1.00  0.00     0.036 A 
HETATM    8  C12 UNL     1      26.807  -3.920 -10.959  1.00  0.00     0.030 A 
HETATM    9  C13 UNL     1      27.570  -3.158 -11.860  1.00  0.00     0.002 A 
HETATM   10  C14 UNL     1      27.219  -1.822 -12.148  1.00  0.00     0.001 A 
HETATM   11  C15 UNL     1      26.106  -1.227 -11.532  1.00  0.00     0.010 A 
HETATM   12  C16 UNL     1      25.363  -1.993 -10.635  1.00  0.00    -0.018 A 
HETATM   13  C17 UNL     1      24.207  -1.628  -9.743  1.00  0.00     0.045 C 
HETATM   14  C38 UNL     1      22.876  -0.944 -10.187  1.00  0.00     0.054 C 
HETATM   15  C39 UNL     1      21.750  -1.885  -9.591  1.00  0.00     0.182 C 
HETATM   16  C40 UNL     1      20.768  -1.323  -8.615  1.00  0.00     0.241 C 
HETATM   17  O4  UNL     1      20.351  -0.141  -8.736  1.00  0.00    -0.271 OA
HETATM   18  N6  UNL     1      20.236  -2.175  -7.583  1.00  0.00    -0.346 N 
HETATM   19  H13 UNL     1      24.661  -5.005  -9.403  1.00  0.00     0.161 HD
HETATM   20  H36 UNL     1      19.474  -1.773  -6.991  1.00  0.00     0.163 HD
ENDROOT
BRANCH  13  21
HETATM   21  C18 UNL     1      24.804  -0.970  -8.375  1.00  0.00     0.045 A 
HETATM   22  C19 UNL     1      25.776  -1.874  -7.512  1.00  0.00     0.202 A 
HETATM   23  N3  UNL     1      25.098  -2.111  -6.248  1.00  0.00    -0.314 N 
HETATM   24  N5  UNL     1      26.990  -1.094  -7.300  1.00  0.00    -0.367 N 
HETATM   25  C20 UNL     1      23.771  -1.544  -6.208  1.00  0.00     0.182 C 
HETATM   26  C30 UNL     1      25.655  -2.838  -5.146  1.00  0.00     0.245 C 
HETATM   27  C21 UNL     1      23.464  -1.021  -4.835  1.00  0.00     0.241 C 
HETATM   28  C31 UNL     1      23.780  -0.482  -7.300  1.00  0.00     0.054 C 
HETATM   29  O2  UNL     1      22.588  -0.130  -4.674  1.00  0.00    -0.271 OA
HETATM   30  N4  UNL     1      24.109  -1.603  -3.693  1.00  0.00    -0.346 N 
HETATM   31  C22 UNL     1      24.971  -2.791  -3.796  1.00  0.00     0.181 C 
HETATM   32  H18 UNL     1      23.800  -1.276  -2.752  1.00  0.00     0.163 HD
HETATM   33  O3  UNL     1      26.676  -3.559  -5.322  1.00  0.00    -0.271 OA
HETATM   34  C32 UNL     1      26.916   0.082  -8.068  1.00  0.00     0.036 A 
HETATM   35  H29 UNL     1      27.826  -1.409  -6.762  1.00  0.00     0.161 HD
HETATM   36  C33 UNL     1      27.915   1.048  -8.174  1.00  0.00     0.030 A 
HETATM   37  C37 UNL     1      25.710   0.206  -8.708  1.00  0.00    -0.018 A 
HETATM   38  C34 UNL     1      27.662   2.186  -8.955  1.00  0.00     0.002 A 
HETATM   39  C35 UNL     1      26.418   2.343  -9.590  1.00  0.00     0.001 A 
HETATM   40  C36 UNL     1      25.427   1.357  -9.457  1.00  0.00     0.010 A 
BRANCH  31  41
HETATM   41  C23 UNL     1      26.008  -2.796  -2.651  1.00  0.00     0.073 C 
BRANCH  41  42
HETATM   42  C24 UNL     1      25.846  -3.990  -1.744  1.00  0.00    -0.056 A 
HETATM   43  C25 UNL     1      25.106  -3.876  -0.553  1.00  0.00     0.007 A 
HETATM   44  C26 UNL     1      24.952  -4.980   0.289  1.00  0.00     0.001 A 
HETATM   45  C27 UNL     1      25.535  -6.205  -0.048  1.00  0.00     0.000 A 
HETATM   46  C28 UNL     1      26.276  -6.326  -1.226  1.00  0.00     0.001 A 
HETATM   47  C29 UNL     1      26.433  -5.224  -2.073  1.00  0.00     0.007 A 
ENDBRANCH  41  42
ENDBRANCH  31  41
ENDBRANCH  13  21
BRANCH   1  48
HETATM   48  C2  UNL     1      20.490  -4.125  -6.067  1.00  0.00     0.073 C 
BRANCH  48  49
HETATM   49  C3  UNL     1      19.725  -5.412  -5.894  1.00  0.00    -0.056 A 
HETATM   50  C4  UNL     1      18.747  -5.792  -6.828  1.00  0.00     0.007 A 
HETATM   51  C5  UNL     1      18.047  -6.992  -6.670  1.00  0.00     0.001 A 
HETATM   52  C6  UNL     1      18.317  -7.820  -5.576  1.00  0.00     0.000 A 
HETATM   53  C7  UNL     1      19.294  -7.452  -4.646  1.00  0.00     0.001 A 
HETATM   54  C8  UNL     1      19.997  -6.253  -4.802  1.00  0.00     0.007 A 
ENDBRANCH  48  49
ENDBRANCH   1  48
TORSDOF 5
ENDMDL
MODEL 7
REMARK VINA RESULT:     -11.4      2.844      8.665
REMARK  5 active torsions:
REMARK  status: ('A' for Active; 'I' for Inactive)
REMARK    1  A    between atoms: C1_1  and  C2_2 
REMARK    2  A    between atoms: C2_2  and  C3_3 
REMARK    3  A    between atoms: C17_20  and  C18_21 
REMARK    4  A    between atoms: C22_28  and  C23_29 
REMARK    5  A    between atoms: C23_29  and  C24_30 
ROOT
HETATM    1  C1  UNL     1      17.341   4.886  -2.016  1.00  0.00     0.181 C 
HETATM    2  C9  UNL     1      17.923   6.273  -2.202  1.00  0.00     0.245 C 
HETATM    3  O1  UNL     1      17.250   7.302  -1.926  1.00  0.00    -0.271 OA
HETATM    4  N1  UNL     1      19.264   6.388  -2.671  1.00  0.00    -0.314 N 
HETATM    5  C10 UNL     1      20.086   7.539  -2.881  1.00  0.00     0.202 C 
HETATM    6  N2  UNL     1      19.580   8.848  -3.229  1.00  0.00    -0.367 N 
HETATM    7  C11 UNL     1      20.843   9.416  -3.625  1.00  0.00     0.036 A 
HETATM    8  C12 UNL     1      21.179  10.768  -3.605  1.00  0.00     0.030 A 
HETATM    9  C13 UNL     1      22.501  11.131  -3.909  1.00  0.00     0.002 A 
HETATM   10  C14 UNL     1      23.467  10.146  -4.208  1.00  0.00     0.001 A 
HETATM   11  C15 UNL     1      23.119   8.785  -4.216  1.00  0.00     0.010 A 
HETATM   12  C16 UNL     1      21.802   8.440  -3.920  1.00  0.00    -0.018 A 
HETATM   13  C17 UNL     1      21.095   7.112  -3.952  1.00  0.00     0.045 C 
HETATM   14  C38 UNL     1      21.550   5.805  -3.228  1.00  0.00     0.054 C 
HETATM   15  C39 UNL     1      20.261   5.350  -2.427  1.00  0.00     0.182 C 
HETATM   16  C40 UNL     1      19.653   4.015  -2.716  1.00  0.00     0.241 C 
HETATM   17  O4  UNL     1      20.382   3.028  -2.997  1.00  0.00    -0.271 OA
HETATM   18  N6  UNL     1      18.229   3.848  -2.585  1.00  0.00    -0.346 N 
HETATM   19  H13 UNL     1      18.848   9.371  -2.698  1.00  0.00     0.161 HD
HETATM   20  H36 UNL     1      17.861   2.876  -2.691  1.00  0.00     0.163 HD
ENDROOT
BRANCH  13  21
HETATM   21  C18 UNL     1      20.614   6.825  -5.483  1.00  0.00     0.045 A 
HETATM   22  C19 UNL     1      19.326   7.598  -5.984  1.00  0.00     0.202 A 
HETATM   23  N3  UNL     1      18.315   6.585  -6.239  1.00  0.00    -0.314 N 
HETATM   24  N5  UNL     1      19.700   8.267  -7.225  1.00  0.00    -0.367 N 
HETATM   25  C20 UNL     1      18.753   5.255  -5.890  1.00  0.00     0.182 C 
HETATM   26  C30 UNL     1      17.009   6.850  -6.767  1.00  0.00     0.245 C 
HETATM   27  C21 UNL     1      18.206   4.249  -6.861  1.00  0.00     0.241 C 
HETATM   28  C31 UNL     1      20.273   5.349  -5.870  1.00  0.00     0.054 C 
HETATM   29  O2  UNL     1      18.778   3.138  -7.017  1.00  0.00    -0.271 OA
HETATM   30  N4  UNL     1      16.975   4.521  -7.545  1.00  0.00    -0.346 N 
HETATM   31  C22 UNL     1      16.146   5.698  -7.239  1.00  0.00     0.181 C 
HETATM   32  H18 UNL     1      16.580   3.759  -8.139  1.00  0.00     0.163 HD
HETATM   33  O3  UNL     1      16.565   8.030  -6.781  1.00  0.00    -0.271 OA
HETATM   34  C32 UNL     1      21.085   8.119  -7.423  1.00  0.00     0.036 A 
HETATM   35  H29 UNL     1      19.070   8.858  -7.809  1.00  0.00     0.161 HD
HETATM   36  C33 UNL     1      21.822   8.675  -8.468  1.00  0.00     0.030 A 
HETATM   37  C37 UNL     1      21.661   7.324  -6.467  1.00  0.00    -0.018 A 
HETATM   38  C34 UNL     1      23.194   8.393  -8.540  1.00  0.00     0.002 A 
HETATM   39  C35 UNL     1      23.793   7.552  -7.585  1.00  0.00     0.001 A 
HETATM   40  C36 UNL     1      23.024   6.999  -6.549  1.00  0.00     0.010 A 
BRANCH  31  41
HETATM   41  C23 UNL     1      15.318   6.102  -8.479  1.00  0.00     0.073 C 
BRANCH  41  42
HETATM   42  C24 UNL     1      15.690   5.294  -9.697  1.00  0.00    -0.056 A 
HETATM   43  C25 UNL     1      16.804   5.660 -10.473  1.00  0.00     0.007 A 
HETATM   44  C26 UNL     1      17.153   4.913 -11.602  1.00  0.00     0.001 A 
HETATM   45  C27 UNL     1      16.394   3.797 -11.965  1.00  0.00     0.000 A 
HETATM   46  C28 UNL     1      15.281   3.429 -11.203  1.00  0.00     0.001 A 
HETATM   47  C29 UNL     1      14.928   4.173 -10.072  1.00  0.00     0.007 A 
ENDBRANCH  41  42
ENDBRANCH  31  41
ENDBRANCH  13  21
BRANCH   1  48
HETATM   48  C2  UNL     1      15.940   4.806  -2.660  1.00  0.00     0.073 C 
BRANCH  48  49
HETATM   49  C3  UNL     1      14.859   4.551  -1.642  1.00  0.00    -0.056 A 
HETATM   50  C4  UNL     1      14.116   3.359  -1.673  1.00  0.00     0.007 A 
HETATM   51  C5  UNL     1      13.121   3.121  -0.720  1.00  0.00     0.001 A 
HETATM   52  C6  UNL     1      12.859   4.073   0.270  1.00  0.00     0.000 A 
HETATM   53  C7  UNL     1      13.598   5.259   0.311  1.00  0.00     0.001 A 
HETATM   54  C8  UNL     1      14.595   5.499  -0.639  1.00  0.00     0.007 A 
ENDBRANCH  48  49
ENDBRANCH   1  48
TORSDOF 5
ENDMDL
MODEL 8
REMARK VINA RESULT:     -11.4      3.186      9.178
REMARK  5 active torsions:
REMARK  status: ('A' for Active; 'I' for Inactive)
REMARK    1  A    between atoms: C1_1  and  C2_2 
REMARK    2  A    between atoms: C2_2  and  C3_3 
REMARK    3  A    between atoms: C17_20  and  C18_21 
REMARK    4  A    between atoms: C22_28  and  C23_29 
REMARK    5  A    between atoms: C23_29  and  C24_30 
ROOT
HETATM    1  C1  UNL     1      17.576   7.481  -4.023  1.00  0.00     0.181 C 
HETATM    2  C9  UNL     1      17.447   8.550  -5.090  1.00  0.00     0.245 C 
HETATM    3  O1  UNL     1      16.317   8.975  -5.450  1.00  0.00    -0.271 OA
HETATM    4  N1  UNL     1      18.639   9.087  -5.660  1.00  0.00    -0.314 N 
HETATM    5  C10 UNL     1      18.829  10.127  -6.622  1.00  0.00     0.202 C 
HETATM    6  N2  UNL     1      17.876  10.463  -7.657  1.00  0.00    -0.367 N 
HETATM    7  C11 UNL     1      18.766  11.278  -8.444  1.00  0.00     0.036 A 
HETATM    8  C12 UNL     1      18.391  12.308  -9.304  1.00  0.00     0.030 A 
HETATM    9  C13 UNL     1      19.403  13.080  -9.899  1.00  0.00     0.002 A 
HETATM   10  C14 UNL     1      20.762  12.829  -9.613  1.00  0.00     0.001 A 
HETATM   11  C15 UNL     1      21.127  11.794  -8.738  1.00  0.00     0.010 A 
HETATM   12  C16 UNL     1      20.113  11.031  -8.161  1.00  0.00    -0.018 A 
HETATM   13  C17 UNL     1      20.171   9.807  -7.287  1.00  0.00     0.045 C 
HETATM   14  C38 UNL     1      20.975   9.657  -5.958  1.00  0.00     0.054 C 
HETATM   15  C39 UNL     1      19.899   9.127  -4.923  1.00  0.00     0.182 C 
HETATM   16  C40 UNL     1      20.113   7.807  -4.255  1.00  0.00     0.241 C 
HETATM   17  O4  UNL     1      21.272   7.436  -3.931  1.00  0.00    -0.271 OA
HETATM   18  N6  UNL     1      18.972   7.002  -3.908  1.00  0.00    -0.346 N 
HETATM   19  H13 UNL     1      16.869  10.688  -7.498  1.00  0.00     0.161 HD
HETATM   20  H36 UNL     1      19.161   6.140  -3.347  1.00  0.00     0.163 HD
ENDROOT
BRANCH  13  21
HETATM   21  C18 UNL     1      20.335   8.499  -8.249  1.00  0.00     0.045 A 
HETATM   22  C19 UNL     1      19.172   8.229  -9.290  1.00  0.00     0.202 A 
HETATM   23  N3  UNL     1      18.558   6.971  -8.898  1.00  0.00    -0.314 N 
HETATM   24  N5  UNL     1      19.807   8.100 -10.596  1.00  0.00    -0.367 N 
HETATM   25  C20 UNL     1      19.118   6.427  -7.684  1.00  0.00     0.182 C 
HETATM   26  C30 UNL     1      17.498   6.323  -9.612  1.00  0.00     0.245 C 
HETATM   27  C21 UNL     1      19.176   4.929  -7.758  1.00  0.00     0.241 C 
HETATM   28  C31 UNL     1      20.476   7.105  -7.556  1.00  0.00     0.054 C 
HETATM   29  O2  UNL     1      19.991   4.287  -7.042  1.00  0.00    -0.271 OA
HETATM   30  N4  UNL     1      18.238   4.222  -8.581  1.00  0.00    -0.346 N 
HETATM   31  C22 UNL     1      17.124   4.897  -9.264  1.00  0.00     0.181 C 
HETATM   32  H18 UNL     1      18.251   3.179  -8.532  1.00  0.00     0.163 HD
HETATM   33  O3  UNL     1      16.845   6.962 -10.482  1.00  0.00    -0.271 OA
HETATM   34  C32 UNL     1      21.171   8.425 -10.475  1.00  0.00     0.036 A 
HETATM   35  H29 UNL     1      19.312   7.912 -11.495  1.00  0.00     0.161 HD
HETATM   36  C33 UNL     1      22.091   8.477 -11.521  1.00  0.00     0.030 A 
HETATM   37  C37 UNL     1      21.529   8.672  -9.175  1.00  0.00    -0.018 A 
HETATM   38  C34 UNL     1      23.427   8.781 -11.218  1.00  0.00     0.002 A 
HETATM   39  C35 UNL     1      23.816   9.003  -9.885  1.00  0.00     0.001 A 
HETATM   40  C36 UNL     1      22.868   8.935  -8.852  1.00  0.00     0.010 A 
BRANCH  31  41
HETATM   41  C23 UNL     1      16.719   4.108 -10.530  1.00  0.00     0.073 C 
BRANCH  41  42
HETATM   42  C24 UNL     1      15.279   3.664 -10.484  1.00  0.00    -0.056 A 
HETATM   43  C25 UNL     1      14.964   2.294 -10.443  1.00  0.00     0.007 A 
HETATM   44  C26 UNL     1      13.631   1.878 -10.399  1.00  0.00     0.001 A 
HETATM   45  C27 UNL     1      12.602   2.824 -10.399  1.00  0.00     0.000 A 
HETATM   46  C28 UNL     1      12.905   4.188 -10.446  1.00  0.00     0.001 A 
HETATM   47  C29 UNL     1      14.238   4.609 -10.488  1.00  0.00     0.007 A 
ENDBRANCH  41  42
ENDBRANCH  31  41
ENDBRANCH  13  21
BRANCH   1  48
HETATM   48  C2  UNL     1      16.628   6.303  -4.334  1.00  0.00     0.073 C 
BRANCH  48  49
HETATM   49  C3  UNL     1      15.880   5.837  -3.111  1.00  0.00    -0.056 A 
HETATM   50  C4  UNL     1      15.174   6.754  -2.314  1.00  0.00     0.007 A 
HETATM   51  C5  UNL     1      14.471   6.316  -1.187  1.00  0.00     0.001 A 
HETATM   52  C6  UNL     1      14.472   4.960  -0.846  1.00  0.00     0.000 A 
HETATM   53  C7  UNL     1      15.167   4.041  -1.638  1.00  0.00     0.001 A 
HETATM   54  C8  UNL     1      15.868   4.475  -2.766  1.00  0.00     0.007 A 
ENDBRANCH  48  49
ENDBRANCH   1  48
TORSDOF 5
ENDMDL
MODEL 9
REMARK VINA RESULT:     -11.3      3.723      7.842
REMARK  5 active torsions:
REMARK  status: ('A' for Active; 'I' for Inactive)
REMARK    1  A    between atoms: C1_1  and  C2_2 
REMARK    2  A    between atoms: C2_2  and  C3_3 
REMARK    3  A    between atoms: C17_20  and  C18_21 
REMARK    4  A    between atoms: C22_28  and  C23_29 
REMARK    5  A    between atoms: C23_29  and  C24_30 
ROOT
HETATM    1  C1  UNL     1      16.235   6.038 -11.147  1.00  0.00     0.181 C 
HETATM    2  C9  UNL     1      17.664   5.925 -10.654  1.00  0.00     0.245 C 
HETATM    3  O1  UNL     1      18.092   4.858 -10.139  1.00  0.00    -0.271 OA
HETATM    4  N1  UNL     1      18.527   7.049 -10.812  1.00  0.00    -0.314 N 
HETATM    5  C10 UNL     1      19.914   7.215 -10.506  1.00  0.00     0.202 C 
HETATM    6  N2  UNL     1      20.603   6.510  -9.447  1.00  0.00    -0.367 N 
HETATM    7  C11 UNL     1      21.781   7.340  -9.435  1.00  0.00     0.036 A 
HETATM    8  C12 UNL     1      23.052   6.954  -9.014  1.00  0.00     0.030 A 
HETATM    9  C13 UNL     1      24.114   7.857  -9.188  1.00  0.00     0.002 A 
HETATM   10  C14 UNL     1      23.897   9.114  -9.793  1.00  0.00     0.001 A 
HETATM   11  C15 UNL     1      22.614   9.488 -10.222  1.00  0.00     0.010 A 
HETATM   12  C16 UNL     1      21.568   8.585 -10.036  1.00  0.00    -0.018 A 
HETATM   13  C17 UNL     1      20.089   8.720 -10.277  1.00  0.00     0.045 C 
HETATM   14  C38 UNL     1      19.406   9.163 -11.609  1.00  0.00     0.054 C 
HETATM   15  C39 UNL     1      18.340   8.024 -11.884  1.00  0.00     0.182 C 
HETATM   16  C40 UNL     1      16.891   8.382 -11.966  1.00  0.00     0.241 C 
HETATM   17  O4  UNL     1      16.531   9.472 -12.484  1.00  0.00    -0.271 OA
HETATM   18  N6  UNL     1      15.905   7.430 -11.527  1.00  0.00    -0.346 N 
HETATM   19  H13 UNL     1      20.620   5.473  -9.327  1.00  0.00     0.161 HD
HETATM   20  H36 UNL     1      14.905   7.677 -11.702  1.00  0.00     0.163 HD
ENDROOT
BRANCH  13  21
HETATM   21  C18 UNL     1      19.423   9.449  -8.979  1.00  0.00     0.045 A 
HETATM   22  C19 UNL     1      19.621   8.736  -7.579  1.00  0.00     0.202 A 
HETATM   23  N3  UNL     1      18.296   8.336  -7.135  1.00  0.00    -0.314 N 
HETATM   24  N5  UNL     1      20.179   9.737  -6.679  1.00  0.00    -0.367 N 
HETATM   25  C20 UNL     1      17.267   8.624  -8.105  1.00  0.00     0.182 C 
HETATM   26  C30 UNL     1      18.012   7.707  -5.878  1.00  0.00     0.245 C 
HETATM   27  C21 UNL     1      15.999   9.040  -7.418  1.00  0.00     0.241 C 
HETATM   28  C31 UNL     1      17.880   9.694  -8.999  1.00  0.00     0.054 C 
HETATM   29  O2  UNL     1      15.142   9.733  -8.029  1.00  0.00    -0.271 OA
HETATM   30  N4  UNL     1      15.723   8.570  -6.092  1.00  0.00    -0.346 N 
HETATM   31  C22 UNL     1      16.576   7.581  -5.413  1.00  0.00     0.181 C 
HETATM   32  H18 UNL     1      14.791   8.804  -5.686  1.00  0.00     0.163 HD
HETATM   33  O3  UNL     1      18.951   7.211  -5.198  1.00  0.00    -0.271 OA
HETATM   34  C32 UNL     1      20.488  10.894  -7.417  1.00  0.00     0.036 A 
HETATM   35  H29 UNL     1      20.421   9.583  -5.676  1.00  0.00     0.161 HD
HETATM   36  C33 UNL     1      21.095  12.044  -6.914  1.00  0.00     0.030 A 
HETATM   37  C37 UNL     1      20.094  10.790  -8.726  1.00  0.00    -0.018 A 
HETATM   38  C34 UNL     1      21.294  13.127  -7.782  1.00  0.00     0.002 A 
HETATM   39  C35 UNL     1      20.867  13.048  -9.119  1.00  0.00     0.001 A 
HETATM   40  C36 UNL     1      20.249  11.881  -9.595  1.00  0.00     0.010 A 
BRANCH  31  41
HETATM   41  C23 UNL     1      16.476   7.755  -3.881  1.00  0.00     0.073 C 
BRANCH  41  42
HETATM   42  C24 UNL     1      15.971   6.508  -3.201  1.00  0.00    -0.056 A 
HETATM   43  C25 UNL     1      15.070   6.605  -2.125  1.00  0.00     0.007 A 
HETATM   44  C26 UNL     1      14.599   5.451  -1.493  1.00  0.00     0.001 A 
HETATM   45  C27 UNL     1      15.023   4.193  -1.927  1.00  0.00     0.000 A 
HETATM   46  C28 UNL     1      15.923   4.086  -2.992  1.00  0.00     0.001 A 
HETATM   47  C29 UNL     1      16.397   5.238  -3.628  1.00  0.00     0.007 A 
ENDBRANCH  41  42
ENDBRANCH  31  41
ENDBRANCH  13  21
BRANCH   1  48
HETATM   48  C2  UNL     1      15.259   5.530 -10.066  1.00  0.00     0.073 C 
BRANCH  48  49
HETATM   49  C3  UNL     1      14.441   4.357 -10.543  1.00  0.00    -0.056 A 
HETATM   50  C4  UNL     1      14.800   3.045 -10.189  1.00  0.00     0.007 A 
HETATM   51  C5  UNL     1      14.032   1.961 -10.625  1.00  0.00     0.001 A 
HETATM   52  C6  UNL     1      12.902   2.178 -11.419  1.00  0.00     0.000 A 
HETATM   53  C7  UNL     1      12.535   3.480 -11.770  1.00  0.00     0.001 A 
HETATM   54  C8  UNL     1      13.299   4.567 -11.335  1.00  0.00     0.007 A 
ENDBRANCH  48  49
ENDBRANCH   1  48
TORSDOF 5
ENDMDL
MODEL 10
REMARK VINA RESULT:     -11.2      9.576     13.616
REMARK  5 active torsions:
REMARK  status: ('A' for Active; 'I' for Inactive)
REMARK    1  A    between atoms: C1_1  and  C2_2 
REMARK    2  A    between atoms: C2_2  and  C3_3 
REMARK    3  A    between atoms: C17_20  and  C18_21 
REMARK    4  A    between atoms: C22_28  and  C23_29 
REMARK    5  A    between atoms: C23_29  and  C24_30 
ROOT
HETATM    1  C1  UNL     1      20.857  -3.512  -5.940  1.00  0.00     0.181 C 
HETATM    2  C9  UNL     1      21.554  -3.246  -7.259  1.00  0.00     0.245 C 
HETATM    3  O1  UNL     1      21.834  -4.188  -8.047  1.00  0.00    -0.271 OA
HETATM    4  N1  UNL     1      21.861  -1.897  -7.604  1.00  0.00    -0.314 N 
HETATM    5  C10 UNL     1      22.448  -1.344  -8.785  1.00  0.00     0.202 C 
HETATM    6  N2  UNL     1      23.386  -2.045  -9.632  1.00  0.00    -0.367 N 
HETATM    7  C11 UNL     1      23.834  -0.893 -10.373  1.00  0.00     0.036 A 
HETATM    8  C12 UNL     1      24.360  -0.900 -11.663  1.00  0.00     0.030 A 
HETATM    9  C13 UNL     1      24.630   0.333 -12.280  1.00  0.00     0.002 A 
HETATM   10  C14 UNL     1      24.354   1.546 -11.613  1.00  0.00     0.001 A 
HETATM   11  C15 UNL     1      23.814   1.541 -10.317  1.00  0.00     0.010 A 
HETATM   12  C16 UNL     1      23.559   0.310  -9.715  1.00  0.00    -0.018 A 
HETATM   13  C17 UNL     1      23.097  -0.034  -8.324  1.00  0.00     0.045 C 
HETATM   14  C38 UNL     1      21.831   0.526  -7.605  1.00  0.00     0.054 C 
HETATM   15  C39 UNL     1      21.073  -0.772  -7.107  1.00  0.00     0.182 C 
HETATM   16  C40 UNL     1      20.827  -0.961  -5.645  1.00  0.00     0.241 C 
HETATM   17  O4  UNL     1      20.563   0.026  -4.909  1.00  0.00    -0.271 OA
HETATM   18  N6  UNL     1      20.810  -2.294  -5.101  1.00  0.00    -0.346 N 
HETATM   19  H13 UNL     1      23.227  -2.984 -10.059  1.00  0.00     0.161 HD
HETATM   20  H36 UNL     1      20.528  -2.386  -4.099  1.00  0.00     0.163 HD
ENDROOT
BRANCH  13  21
HETATM   21  C18 UNL     1      24.399  -0.050  -7.342  1.00  0.00     0.045 A 
HETATM   22  C19 UNL     1      25.267  -1.374  -7.328  1.00  0.00     0.202 A 
HETATM   23  N3  UNL     1      25.147  -1.927  -5.989  1.00  0.00    -0.314 N 
HETATM   24  N5  UNL     1      26.644  -0.971  -7.590  1.00  0.00    -0.367 N 
HETATM   25  C20 UNL     1      24.244  -1.175  -5.150  1.00  0.00     0.182 C 
HETATM   26  C30 UNL     1      25.829  -3.099  -5.525  1.00  0.00     0.245 C 
HETATM   27  C21 UNL     1      24.743  -1.145  -3.735  1.00  0.00     0.241 C 
HETATM   28  C31 UNL     1      24.158   0.192  -5.817  1.00  0.00     0.054 C 
HETATM   29  O2  UNL     1      24.381  -0.228  -2.951  1.00  0.00    -0.271 OA
HETATM   30  N4  UNL     1      25.564  -2.216  -3.249  1.00  0.00    -0.346 N 
HETATM   31  C22 UNL     1      25.837  -3.424  -4.045  1.00  0.00     0.181 C 
HETATM   32  H18 UNL     1      25.812  -2.206  -2.236  1.00  0.00     0.163 HD
HETATM   33  O3  UNL     1      26.365  -3.883  -6.355  1.00  0.00    -0.271 OA
HETATM   34  C32 UNL     1      26.664   0.396  -7.921  1.00  0.00     0.036 A 
HETATM   35  H29 UNL     1      27.464  -1.613  -7.642  1.00  0.00     0.161 HD
HETATM   36  C33 UNL     1      27.790   1.127  -8.295  1.00  0.00     0.030 A 
HETATM   37  C37 UNL     1      25.424   0.972  -7.810  1.00  0.00    -0.018 A 
HETATM   38  C34 UNL     1      27.640   2.497  -8.553  1.00  0.00     0.002 A 
HETATM   39  C35 UNL     1      26.382   3.109  -8.412  1.00  0.00     0.001 A 
HETATM   40  C36 UNL     1      25.267   2.349  -8.023  1.00  0.00     0.010 A 
BRANCH  31  41
HETATM   41  C23 UNL     1      27.187  -4.044  -3.624  1.00  0.00     0.073 C 
BRANCH  41  42
HETATM   42  C24 UNL     1      27.096  -4.751  -2.295  1.00  0.00    -0.056 A 
HETATM   43  C25 UNL     1      27.734  -4.211  -1.164  1.00  0.00     0.007 A 
HETATM   44  C26 UNL     1      27.651  -4.861   0.070  1.00  0.00     0.001 A 
HETATM   45  C27 UNL     1      26.934  -6.055   0.185  1.00  0.00     0.000 A 
HETATM   46  C28 UNL     1      26.301  -6.603  -0.935  1.00  0.00     0.001 A 
HETATM   47  C29 UNL     1      26.381  -5.954  -2.172  1.00  0.00     0.007 A 
ENDBRANCH  41  42
ENDBRANCH  31  41
ENDBRANCH  13  21
BRANCH   1  48
HETATM   48  C2  UNL     1      21.568  -4.656  -5.185  1.00  0.00     0.073 C 
BRANCH  48  49
HETATM   49  C3  UNL     1      20.803  -5.953  -5.267  1.00  0.00    -0.056 A 
HETATM   50  C4  UNL     1      19.746  -6.215  -4.380  1.00  0.00     0.007 A 
HETATM   51  C5  UNL     1      19.031  -7.413  -4.466  1.00  0.00     0.001 A 
HETATM   52  C6  UNL     1      19.370  -8.361  -5.437  1.00  0.00     0.000 A 
HETATM   53  C7  UNL     1      20.417  -8.105  -6.327  1.00  0.00     0.001 A 
HETATM   54  C8  UNL     1      21.132  -6.906  -6.245  1.00  0.00     0.007 A 
ENDBRANCH  48  49
ENDBRANCH   1  48
TORSDOF 5
ENDMDL
MODEL 11
REMARK VINA RESULT:     -11.2      4.801      9.860
REMARK  5 active torsions:
REMARK  status: ('A' for Active; 'I' for Inactive)
REMARK    1  A    between atoms: C1_1  and  C2_2 
REMARK    2  A    between atoms: C2_2  and  C3_3 
REMARK    3  A    between atoms: C17_20  and  C18_21 
REMARK    4  A    between atoms: C22_28  and  C23_29 
REMARK    5  A    between atoms: C23_29  and  C24_30 
ROOT
HETATM    1  C1  UNL     1      16.113   6.505  -8.079  1.00  0.00     0.181 C 
HETATM    2  C9  UNL     1      17.048   7.459  -8.795  1.00  0.00     0.245 C 
HETATM    3  O1  UNL     1      17.285   7.335 -10.026  1.00  0.00    -0.271 OA
HETATM    4  N1  UNL     1      17.635   8.522  -8.048  1.00  0.00    -0.314 N 
HETATM    5  C10 UNL     1      18.490   9.593  -8.458  1.00  0.00     0.202 C 
HETATM    6  N2  UNL     1      19.418   9.515  -9.564  1.00  0.00    -0.367 N 
HETATM    7  C11 UNL     1      20.170  10.699  -9.234  1.00  0.00     0.036 A 
HETATM    8  C12 UNL     1      20.888  11.491 -10.127  1.00  0.00     0.030 A 
HETATM    9  C13 UNL     1      21.462  12.681  -9.649  1.00  0.00     0.002 A 
HETATM   10  C14 UNL     1      21.295  13.070  -8.303  1.00  0.00     0.001 A 
HETATM   11  C15 UNL     1      20.561  12.268  -7.414  1.00  0.00     0.010 A 
HETATM   12  C16 UNL     1      20.005  11.086  -7.900  1.00  0.00    -0.018 A 
HETATM   13  C17 UNL     1      19.273   9.974  -7.197  1.00  0.00     0.045 C 
HETATM   14  C38 UNL     1      18.023  10.128  -6.275  1.00  0.00     0.054 C 
HETATM   15  C39 UNL     1      16.982   9.094  -6.873  1.00  0.00     0.182 C 
HETATM   16  C40 UNL     1      16.475   7.984  -6.011  1.00  0.00     0.241 C 
HETATM   17  O4  UNL     1      16.270   8.171  -4.783  1.00  0.00    -0.271 OA
HETATM   18  N6  UNL     1      16.142   6.721  -6.615  1.00  0.00    -0.346 N 
HETATM   19  H13 UNL     1      19.169   9.237 -10.539  1.00  0.00     0.161 HD
HETATM   20  H36 UNL     1      15.691   6.010  -5.996  1.00  0.00     0.163 HD
ENDROOT
BRANCH  13  21
HETATM   21  C18 UNL     1      20.377   8.957  -6.561  1.00  0.00     0.045 A 
HETATM   22  C19 UNL     1      21.649   8.637  -7.449  1.00  0.00     0.202 A 
HETATM   23  N3  UNL     1      21.581   7.220  -7.765  1.00  0.00    -0.314 N 
HETATM   24  N5  UNL     1      22.815   8.919  -6.621  1.00  0.00    -0.367 N 
HETATM   25  C20 UNL     1      20.383   6.590  -7.264  1.00  0.00     0.182 C 
HETATM   26  C30 UNL     1      22.576   6.499  -8.504  1.00  0.00     0.245 C 
HETATM   27  C21 UNL     1      20.677   5.191  -6.806  1.00  0.00     0.241 C 
HETATM   28  C31 UNL     1      19.897   7.524  -6.163  1.00  0.00     0.054 C 
HETATM   29  O2  UNL     1      19.929   4.626  -5.965  1.00  0.00    -0.271 OA
HETATM   30  N4  UNL     1      21.762   4.464  -7.398  1.00  0.00    -0.346 N 
HETATM   31  C22 UNL     1      22.531   4.986  -8.539  1.00  0.00     0.181 C 
HETATM   32  H18 UNL     1      21.875   3.464  -7.121  1.00  0.00     0.163 HD
HETATM   33  O3  UNL     1      23.443   7.130  -9.168  1.00  0.00    -0.271 OA
HETATM   34  C32 UNL     1      22.389   9.520  -5.422  1.00  0.00     0.036 A 
HETATM   35  H29 UNL     1      23.809   8.805  -6.915  1.00  0.00     0.161 HD
HETATM   36  C33 UNL     1      23.220   9.988  -4.406  1.00  0.00     0.030 A 
HETATM   37  C37 UNL     1      21.022   9.579  -5.333  1.00  0.00    -0.018 A 
HETATM   38  C34 UNL     1      22.627  10.525  -3.254  1.00  0.00     0.002 A 
HETATM   39  C35 UNL     1      21.227  10.563  -3.134  1.00  0.00     0.001 A 
HETATM   40  C36 UNL     1      20.415  10.075  -4.169  1.00  0.00     0.010 A 
BRANCH  31  41
HETATM   41  C23 UNL     1      23.957   4.392  -8.536  1.00  0.00     0.073 C 
BRANCH  41  42
HETATM   42  C24 UNL     1      24.127   3.322  -9.585  1.00  0.00    -0.056 A 
HETATM   43  C25 UNL     1      25.346   2.629  -9.695  1.00  0.00     0.007 A 
HETATM   44  C26 UNL     1      25.507   1.635 -10.664  1.00  0.00     0.001 A 
HETATM   45  C27 UNL     1      24.457   1.327 -11.533  1.00  0.00     0.000 A 
HETATM   46  C28 UNL     1      23.244   2.015 -11.435  1.00  0.00     0.001 A 
HETATM   47  C29 UNL     1      23.077   3.010 -10.466  1.00  0.00     0.007 A 
ENDBRANCH  41  42
ENDBRANCH  31  41
ENDBRANCH  13  21
BRANCH   1  48
HETATM   48  C2  UNL     1      16.485   5.045  -8.415  1.00  0.00     0.073 C 
BRANCH  48  49
HETATM   49  C3  UNL     1      15.459   4.386  -9.301  1.00  0.00    -0.056 A 
HETATM   50  C4  UNL     1      15.583   3.030  -9.650  1.00  0.00     0.007 A 
HETATM   51  C5  UNL     1      14.624   2.419 -10.463  1.00  0.00     0.001 A 
HETATM   52  C6  UNL     1      13.536   3.158 -10.937  1.00  0.00     0.000 A 
HETATM   53  C7  UNL     1      13.402   4.506 -10.589  1.00  0.00     0.001 A 
HETATM   54  C8  UNL     1      14.359   5.120  -9.775  1.00  0.00     0.007 A 
ENDBRANCH  48  49
ENDBRANCH   1  48
TORSDOF 5
ENDMDL
MODEL 12
REMARK VINA RESULT:     -11.2      2.642      8.853
REMARK  5 active torsions:
REMARK  status: ('A' for Active; 'I' for Inactive)
REMARK    1  A    between atoms: C1_1  and  C2_2 
REMARK    2  A    between atoms: C2_2  and  C3_3 
REMARK    3  A    between atoms: C17_20  and  C18_21 
REMARK    4  A    between atoms: C22_28  and  C23_29 
REMARK    5  A    between atoms: C23_29  and  C24_30 
ROOT
HETATM    1  C1  UNL     1      16.715   6.586  -2.638  1.00  0.00     0.181 C 
HETATM    2  C9  UNL     1      16.729   7.491  -3.854  1.00  0.00     0.245 C 
HETATM    3  O1  UNL     1      15.660   7.803  -4.444  1.00  0.00    -0.271 OA
HETATM    4  N1  UNL     1      17.980   8.007  -4.301  1.00  0.00    -0.314 N 
HETATM    5  C10 UNL     1      18.293   8.916  -5.360  1.00  0.00     0.202 C 
HETATM    6  N2  UNL     1      17.512   9.056  -6.569  1.00  0.00    -0.367 N 
HETATM    7  C11 UNL     1      18.493   9.802  -7.315  1.00  0.00     0.036 A 
HETATM    8  C12 UNL     1      18.232  10.683  -8.362  1.00  0.00     0.030 A 
HETATM    9  C13 UNL     1      19.303  11.420  -8.895  1.00  0.00     0.002 A 
HETATM   10  C14 UNL     1      20.604  11.282  -8.367  1.00  0.00     0.001 A 
HETATM   11  C15 UNL     1      20.854  10.398  -7.306  1.00  0.00     0.010 A 
HETATM   12  C16 UNL     1      19.783   9.667  -6.792  1.00  0.00    -0.018 A 
HETATM   13  C17 UNL     1      19.735   8.579  -5.753  1.00  0.00     0.045 C 
HETATM   14  C38 UNL     1      20.316   8.655  -4.306  1.00  0.00     0.054 C 
HETATM   15  C39 UNL     1      19.102   8.215  -3.389  1.00  0.00     0.182 C 
HETATM   16  C40 UNL     1      19.244   7.012  -2.513  1.00  0.00     0.241 C 
HETATM   17  O4  UNL     1      20.346   6.750  -1.962  1.00  0.00    -0.271 OA
HETATM   18  N6  UNL     1      18.087   6.202  -2.237  1.00  0.00    -0.346 N 
HETATM   19  H13 UNL     1      16.486   9.247  -6.603  1.00  0.00     0.161 HD
HETATM   20  H36 UNL     1      18.208   5.436  -1.537  1.00  0.00     0.163 HD
ENDROOT
BRANCH  13  21
HETATM   21  C18 UNL     1      20.092   7.163  -6.480  1.00  0.00     0.045 A 
HETATM   22  C19 UNL     1      19.145   6.709  -7.665  1.00  0.00     0.202 A 
HETATM   23  N3  UNL     1      18.489   5.492  -7.220  1.00  0.00    -0.314 N 
HETATM   24  N5  UNL     1      20.011   6.434  -8.806  1.00  0.00    -0.367 N 
HETATM   25  C20 UNL     1      18.825   5.136  -5.862  1.00  0.00     0.182 C 
HETATM   26  C30 UNL     1      17.588   4.711  -8.017  1.00  0.00     0.245 C 
HETATM   27  C21 UNL     1      18.919   3.645  -5.717  1.00  0.00     0.241 C 
HETATM   28  C31 UNL     1      20.126   5.880  -5.588  1.00  0.00     0.054 C 
HETATM   29  O2  UNL     1      19.599   3.138  -4.785  1.00  0.00    -0.271 OA
HETATM   30  N4  UNL     1      18.159   2.798  -6.589  1.00  0.00    -0.346 N 
HETATM   31  C22 UNL     1      17.179   3.331  -7.549  1.00  0.00     0.181 C 
HETATM   32  H18 UNL     1      18.179   1.773  -6.396  1.00  0.00     0.163 HD
HETATM   33  O3  UNL     1      17.096   5.202  -9.070  1.00  0.00    -0.271 OA
HETATM   34  C32 UNL     1      21.324   6.828  -8.488  1.00  0.00     0.036 A 
HETATM   35  H29 UNL     1      19.692   6.109  -9.744  1.00  0.00     0.161 HD
HETATM   36  C33 UNL     1      22.420   6.777  -9.348  1.00  0.00     0.030 A 
HETATM   37  C37 UNL     1      21.433   7.259  -7.191  1.00  0.00    -0.018 A 
HETATM   38  C34 UNL     1      23.672   7.172  -8.855  1.00  0.00     0.002 A 
HETATM   39  C35 UNL     1      23.806   7.585  -7.518  1.00  0.00     0.001 A 
HETATM   40  C36 UNL     1      22.686   7.616  -6.672  1.00  0.00     0.010 A 
BRANCH  31  41
HETATM   41  C23 UNL     1      17.026   2.365  -8.745  1.00  0.00     0.073 C 
BRANCH  41  42
HETATM   42  C24 UNL     1      18.056   1.264  -8.719  1.00  0.00    -0.056 A 
HETATM   43  C25 UNL     1      19.342   1.488  -9.245  1.00  0.00     0.007 A 
HETATM   44  C26 UNL     1      20.300   0.471  -9.221  1.00  0.00     0.001 A 
HETATM   45  C27 UNL     1      19.983  -0.777  -8.677  1.00  0.00     0.000 A 
HETATM   46  C28 UNL     1      18.707  -1.010  -8.158  1.00  0.00     0.001 A 
HETATM   47  C29 UNL     1      17.745   0.005  -8.178  1.00  0.00     0.007 A 
ENDBRANCH  41  42
ENDBRANCH  31  41
ENDBRANCH  13  21
BRANCH   1  48
HETATM   48  C2  UNL     1      15.866   5.329  -2.921  1.00  0.00     0.073 C 
BRANCH  48  49
HETATM   49  C3  UNL     1      14.944   4.994  -1.776  1.00  0.00    -0.056 A 
HETATM   50  C4  UNL     1      14.677   5.942  -0.775  1.00  0.00     0.007 A 
HETATM   51  C5  UNL     1      13.813   5.632   0.280  1.00  0.00     0.001 A 
HETATM   52  C6  UNL     1      13.211   4.372   0.343  1.00  0.00     0.000 A 
HETATM   53  C7  UNL     1      13.467   3.425  -0.654  1.00  0.00     0.001 A 
HETATM   54  C8  UNL     1      14.329   3.732  -1.710  1.00  0.00     0.007 A 
ENDBRANCH  48  49
ENDBRANCH   1  48
TORSDOF 5
ENDMDL
MODEL 13
REMARK VINA RESULT:     -11.1      2.087      8.811
REMARK  5 active torsions:
REMARK  status: ('A' for Active; 'I' for Inactive)
REMARK    1  A    between atoms: C1_1  and  C2_2 
REMARK    2  A    between atoms: C2_2  and  C3_3 
REMARK    3  A    between atoms: C17_20  and  C18_21 
REMARK    4  A    between atoms: C22_28  and  C23_29 
REMARK    5  A    between atoms: C23_29  and  C24_30 
ROOT
HETATM    1  C1  UNL     1      16.916   5.397  -1.320  1.00  0.00     0.181 C 
HETATM    2  C9  UNL     1      17.864   6.536  -1.638  1.00  0.00     0.245 C 
HETATM    3  O1  UNL     1      17.713   7.672  -1.116  1.00  0.00    -0.271 OA
HETATM    4  N1  UNL     1      18.952   6.284  -2.524  1.00  0.00    -0.314 N 
HETATM    5  C10 UNL     1      20.023   7.129  -2.954  1.00  0.00     0.202 C 
HETATM    6  N2  UNL     1      19.931   8.568  -3.064  1.00  0.00    -0.367 N 
HETATM    7  C11 UNL     1      21.131   8.753  -3.838  1.00  0.00     0.036 A 
HETATM    8  C12 UNL     1      21.911   9.907  -3.881  1.00  0.00     0.030 A 
HETATM    9  C13 UNL     1      23.119   9.869  -4.597  1.00  0.00     0.002 A 
HETATM   10  C14 UNL     1      23.538   8.683  -5.237  1.00  0.00     0.001 A 
HETATM   11  C15 UNL     1      22.749   7.523  -5.179  1.00  0.00     0.010 A 
HETATM   12  C16 UNL     1      21.548   7.579  -4.472  1.00  0.00    -0.018 A 
HETATM   13  C17 UNL     1      20.445   6.567  -4.315  1.00  0.00     0.045 C 
HETATM   14  C38 UNL     1      20.605   5.091  -3.834  1.00  0.00     0.054 C 
HETATM   15  C39 UNL     1      19.544   4.957  -2.666  1.00  0.00     0.182 C 
HETATM   16  C40 UNL     1      18.448   3.948  -2.784  1.00  0.00     0.241 C 
HETATM   17  O4  UNL     1      18.662   2.833  -3.329  1.00  0.00    -0.271 OA
HETATM   18  N6  UNL     1      17.167   4.228  -2.192  1.00  0.00    -0.346 N 
HETATM   19  H13 UNL     1      19.626   9.212  -2.300  1.00  0.00     0.161 HD
HETATM   20  H36 UNL     1      16.466   3.453  -2.204  1.00  0.00     0.163 HD
ENDROOT
BRANCH  13  21
HETATM   21  C18 UNL     1      19.457   6.683  -5.608  1.00  0.00     0.045 A 
HETATM   22  C19 UNL     1      19.909   7.663  -6.767  1.00  0.00     0.202 A 
HETATM   23  N3  UNL     1      18.916   8.724  -6.815  1.00  0.00    -0.314 N 
HETATM   24  N5  UNL     1      19.885   6.886  -8.000  1.00  0.00    -0.367 N 
HETATM   25  C20 UNL     1      17.917   8.605  -5.781  1.00  0.00     0.182 C 
HETATM   26  C30 UNL     1      18.911   9.794  -7.769  1.00  0.00     0.245 C 
HETATM   27  C21 UNL     1      16.575   9.040  -6.294  1.00  0.00     0.241 C 
HETATM   28  C31 UNL     1      17.985   7.144  -5.355  1.00  0.00     0.054 C 
HETATM   29  O2  UNL     1      15.519   8.630  -5.743  1.00  0.00    -0.271 OA
HETATM   30  N4  UNL     1      16.499   9.998  -7.358  1.00  0.00    -0.346 N 
HETATM   31  C22 UNL     1      17.689  10.681  -7.891  1.00  0.00     0.181 C 
HETATM   32  H18 UNL     1      15.551  10.345  -7.622  1.00  0.00     0.163 HD
HETATM   33  O3  UNL     1      19.943  10.028  -8.455  1.00  0.00    -0.271 OA
HETATM   34  C32 UNL     1      19.638   5.537  -7.685  1.00  0.00     0.036 A 
HETATM   35  H29 UNL     1      20.127   7.246  -8.948  1.00  0.00     0.161 HD
HETATM   36  C33 UNL     1      19.603   4.482  -8.595  1.00  0.00     0.030 A 
HETATM   37  C37 UNL     1      19.398   5.356  -6.347  1.00  0.00    -0.018 A 
HETATM   38  C34 UNL     1      19.301   3.199  -8.116  1.00  0.00     0.002 A 
HETATM   39  C35 UNL     1      19.021   3.002  -6.752  1.00  0.00     0.001 A 
HETATM   40  C36 UNL     1      19.054   4.086  -5.861  1.00  0.00     0.010 A 
BRANCH  31  41
HETATM   41  C23 UNL     1      17.452  11.093  -9.361  1.00  0.00     0.073 C 
BRANCH  41  42
HETATM   42  C24 UNL     1      17.920  12.500  -9.637  1.00  0.00    -0.056 A 
HETATM   43  C25 UNL     1      17.033  13.444 -10.183  1.00  0.00     0.007 A 
HETATM   44  C26 UNL     1      17.462  14.749 -10.439  1.00  0.00     0.001 A 
HETATM   45  C27 UNL     1      18.779  15.121 -10.156  1.00  0.00     0.000 A 
HETATM   46  C28 UNL     1      19.670  14.187  -9.618  1.00  0.00     0.001 A 
HETATM   47  C29 UNL     1      19.244  12.880  -9.359  1.00  0.00     0.007 A 
ENDBRANCH  41  42
ENDBRANCH  31  41
ENDBRANCH  13  21
BRANCH   1  48
HETATM   48  C2  UNL     1      15.453   5.869  -1.462  1.00  0.00     0.073 C 
BRANCH  48  49
HETATM   49  C3  UNL     1      14.829   6.199  -0.129  1.00  0.00    -0.056 A 
HETATM   50  C4  UNL     1      14.486   7.523   0.190  1.00  0.00     0.007 A 
HETATM   51  C5  UNL     1      13.898   7.824   1.422  1.00  0.00     0.001 A 
HETATM   52  C6  UNL     1      13.650   6.804   2.346  1.00  0.00     0.000 A 
HETATM   53  C7  UNL     1      13.983   5.483   2.033  1.00  0.00     0.001 A 
HETATM   54  C8  UNL     1      14.570   5.179   0.801  1.00  0.00     0.007 A 
ENDBRANCH  48  49
ENDBRANCH   1  48
TORSDOF 5
ENDMDL
MODEL 14
REMARK VINA RESULT:     -11.0      3.103      6.416
REMARK  5 active torsions:
REMARK  status: ('A' for Active; 'I' for Inactive)
REMARK    1  A    between atoms: C1_1  and  C2_2 
REMARK    2  A    between atoms: C2_2  and  C3_3 
REMARK    3  A    between atoms: C17_20  and  C18_21 
REMARK    4  A    between atoms: C22_28  and  C23_29 
REMARK    5  A    between atoms: C23_29  and  C24_30 
ROOT
HETATM    1  C1  UNL     1      15.818   7.025  -9.444  1.00  0.00     0.181 C 
HETATM    2  C9  UNL     1      17.245   6.518  -9.384  1.00  0.00     0.245 C 
HETATM    3  O1  UNL     1      17.525   5.328  -9.688  1.00  0.00    -0.271 OA
HETATM    4  N1  UNL     1      18.273   7.429  -9.003  1.00  0.00    -0.314 N 
HETATM    5  C10 UNL     1      19.690   7.258  -8.918  1.00  0.00     0.202 C 
HETATM    6  N2  UNL     1      20.343   6.000  -8.629  1.00  0.00    -0.367 N 
HETATM    7  C11 UNL     1      21.644   6.549  -8.345  1.00  0.00     0.036 A 
HETATM    8  C12 UNL     1      22.862   5.884  -8.475  1.00  0.00     0.030 A 
HETATM    9  C13 UNL     1      24.045   6.614  -8.272  1.00  0.00     0.002 A 
HETATM   10  C14 UNL     1      23.996   7.991  -7.966  1.00  0.00     0.001 A 
HETATM   11  C15 UNL     1      22.764   8.653  -7.847  1.00  0.00     0.010 A 
HETATM   12  C16 UNL     1      21.598   7.914  -8.043  1.00  0.00    -0.018 A 
HETATM   13  C17 UNL     1      20.149   8.289  -7.882  1.00  0.00     0.045 C 
HETATM   14  C38 UNL     1      19.431   9.508  -8.542  1.00  0.00     0.054 C 
HETATM   15  C39 UNL     1      18.159   8.866  -9.235  1.00  0.00     0.182 C 
HETATM   16  C40 UNL     1      16.795   9.317  -8.823  1.00  0.00     0.241 C 
HETATM   17  O4  UNL     1      16.585  10.521  -8.520  1.00  0.00    -0.271 OA
HETATM   18  N6  UNL     1      15.704   8.380  -8.859  1.00  0.00    -0.346 N 
HETATM   19  H13 UNL     1      20.188   5.108  -9.150  1.00  0.00     0.161 HD
HETATM   20  H36 UNL     1      14.751   8.764  -8.668  1.00  0.00     0.163 HD
ENDROOT
BRANCH  13  21
HETATM   21  C18 UNL     1      19.750   8.125  -6.309  1.00  0.00     0.045 A 
HETATM   22  C19 UNL     1      20.010   6.709  -5.650  1.00  0.00     0.202 A 
HETATM   23  N3  UNL     1      18.704   6.179  -5.295  1.00  0.00    -0.314 N 
HETATM   24  N5  UNL     1      20.805   6.949  -4.452  1.00  0.00    -0.367 N 
HETATM   25  C20 UNL     1      17.618   7.033  -5.712  1.00  0.00     0.182 C 
HETATM   26  C30 UNL     1      18.485   4.937  -4.614  1.00  0.00     0.245 C 
HETATM   27  C21 UNL     1      16.510   7.010  -4.699  1.00  0.00     0.241 C 
HETATM   28  C31 UNL     1      18.265   8.399  -5.907  1.00  0.00     0.054 C 
HETATM   29  O2  UNL     1      15.693   7.966  -4.627  1.00  0.00    -0.271 OA
HETATM   30  N4  UNL     1      16.330   5.852  -3.872  1.00  0.00    -0.346 N 
HETATM   31  C22 UNL     1      17.110   4.618  -4.062  1.00  0.00     0.181 C 
HETATM   32  H18 UNL     1      15.494   5.836  -3.248  1.00  0.00     0.163 HD
HETATM   33  O3  UNL     1      19.419   4.093  -4.532  1.00  0.00    -0.271 OA
HETATM   34  C32 UNL     1      21.183   8.303  -4.418  1.00  0.00     0.036 A 
HETATM   35  H29 UNL     1      21.139   6.215  -3.790  1.00  0.00     0.161 HD
HETATM   36  C33 UNL     1      22.001   8.896  -3.457  1.00  0.00     0.030 A 
HETATM   37  C37 UNL     1      20.628   9.019  -5.447  1.00  0.00    -0.018 A 
HETATM   38  C34 UNL     1      22.246  10.274  -3.550  1.00  0.00     0.002 A 
HETATM   39  C35 UNL     1      21.657  11.028  -4.580  1.00  0.00     0.001 A 
HETATM   40  C36 UNL     1      20.830  10.405  -5.528  1.00  0.00     0.010 A 
BRANCH  31  41
HETATM   41  C23 UNL     1      17.217   3.846  -2.728  1.00  0.00     0.073 C 
BRANCH  41  42
HETATM   42  C24 UNL     1      16.002   4.048  -1.858  1.00  0.00    -0.056 A 
HETATM   43  C25 UNL     1      14.856   3.255  -2.051  1.00  0.00     0.007 A 
HETATM   44  C26 UNL     1      13.729   3.438  -1.246  1.00  0.00     0.001 A 
HETATM   45  C27 UNL     1      13.734   4.413  -0.245  1.00  0.00     0.000 A 
HETATM   46  C28 UNL     1      14.866   5.210  -0.050  1.00  0.00     0.001 A 
HETATM   47  C29 UNL     1      15.997   5.030  -0.852  1.00  0.00     0.007 A 
ENDBRANCH  41  42
ENDBRANCH  31  41
ENDBRANCH  13  21
BRANCH   1  48
HETATM   48  C2  UNL     1      14.875   6.044  -8.715  1.00  0.00     0.073 C 
BRANCH  48  49
HETATM   49  C3  UNL     1      14.079   5.199  -9.676  1.00  0.00    -0.056 A 
HETATM   50  C4  UNL     1      12.925   5.712 -10.291  1.00  0.00     0.007 A 
HETATM   51  C5  UNL     1      12.195   4.930 -11.191  1.00  0.00     0.001 A 
HETATM   52  C6  UNL     1      12.612   3.627 -11.481  1.00  0.00     0.000 A 
HETATM   53  C7  UNL     1      13.763   3.111 -10.879  1.00  0.00     0.001 A 
HETATM   54  C8  UNL     1      14.496   3.892  -9.980  1.00  0.00     0.007 A 
ENDBRANCH  48  49
ENDBRANCH   1  48
TORSDOF 5
ENDMDL
MODEL 15
REMARK VINA RESULT:     -11.0      3.768      9.198
REMARK  5 active torsions:
REMARK  status: ('A' for Active; 'I' for Inactive)
REMARK    1  A    between atoms: C1_1  and  C2_2 
REMARK    2  A    between atoms: C2_2  and  C3_3 
REMARK    3  A    between atoms: C17_20  and  C18_21 
REMARK    4  A    between atoms: C22_28  and  C23_29 
REMARK    5  A    between atoms: C23_29  and  C24_30 
ROOT
HETATM    1  C1  UNL     1      18.111   7.851  -3.830  1.00  0.00     0.181 C 
HETATM    2  C9  UNL     1      18.162   8.971  -4.851  1.00  0.00     0.245 C 
HETATM    3  O1  UNL     1      17.323   9.910  -4.828  1.00  0.00    -0.271 OA
HETATM    4  N1  UNL     1      19.202   8.952  -5.826  1.00  0.00    -0.314 N 
HETATM    5  C10 UNL     1      19.535   9.886  -6.856  1.00  0.00     0.202 C 
HETATM    6  N2  UNL     1      18.577  10.741  -7.521  1.00  0.00    -0.367 N 
HETATM    7  C11 UNL     1      19.431  11.132  -8.613  1.00  0.00     0.036 A 
HETATM    8  C12 UNL     1      19.331  12.307  -9.354  1.00  0.00     0.030 A 
HETATM    9  C13 UNL     1      20.328  12.583 -10.305  1.00  0.00     0.002 A 
HETATM   10  C14 UNL     1      21.412  11.698 -10.487  1.00  0.00     0.001 A 
HETATM   11  C15 UNL     1      21.507  10.521  -9.728  1.00  0.00     0.010 A 
HETATM   12  C16 UNL     1      20.507  10.256  -8.794  1.00  0.00    -0.018 A 
HETATM   13  C17 UNL     1      20.261   9.056  -7.920  1.00  0.00     0.045 C 
HETATM   14  C38 UNL     1      21.283   8.400  -6.939  1.00  0.00     0.054 C 
HETATM   15  C39 UNL     1      20.493   8.319  -5.569  1.00  0.00     0.182 C 
HETATM   16  C40 UNL     1      20.261   6.985  -4.936  1.00  0.00     0.241 C 
HETATM   17  O4  UNL     1      21.137   6.083  -5.006  1.00  0.00    -0.271 OA
HETATM   18  N6  UNL     1      19.061   6.769  -4.170  1.00  0.00    -0.346 N 
HETATM   19  H13 UNL     1      17.914  11.389  -7.041  1.00  0.00     0.161 HD
HETATM   20  H36 UNL     1      18.991   5.861  -3.658  1.00  0.00     0.163 HD
ENDROOT
BRANCH  13  21
HETATM   21  C18 UNL     1      19.457   7.940  -8.798  1.00  0.00     0.045 A 
HETATM   22  C19 UNL     1      18.563   8.478  -9.989  1.00  0.00     0.202 A 
HETATM   23  N3  UNL     1      17.188   8.152  -9.647  1.00  0.00    -0.314 N 
HETATM   24  N5  UNL     1      18.977   7.748 -11.181  1.00  0.00    -0.367 N 
HETATM   25  C20 UNL     1      17.063   7.542  -8.344  1.00  0.00     0.182 C 
HETATM   26  C30 UNL     1      16.055   8.408 -10.486  1.00  0.00     0.245 C 
HETATM   27  C21 UNL     1      15.985   6.498  -8.353  1.00  0.00     0.241 C 
HETATM   28  C31 UNL     1      18.457   7.007  -8.042  1.00  0.00     0.054 C 
HETATM   29  O2  UNL     1      15.991   5.569  -7.502  1.00  0.00    -0.271 OA
HETATM   30  N4  UNL     1      14.896   6.611  -9.280  1.00  0.00    -0.346 N 
HETATM   31  C22 UNL     1      14.716   7.787 -10.145  1.00  0.00     0.181 C 
HETATM   32  H18 UNL     1      14.121   5.918  -9.192  1.00  0.00     0.163 HD
HETATM   33  O3  UNL     1      16.165   9.194 -11.466  1.00  0.00    -0.271 OA
HETATM   34  C32 UNL     1      20.111   6.974 -10.872  1.00  0.00     0.036 A 
HETATM   35  H29 UNL     1      18.575   7.867 -12.136  1.00  0.00     0.161 HD
HETATM   36  C33 UNL     1      20.830   6.188 -11.771  1.00  0.00     0.030 A 
HETATM   37  C37 UNL     1      20.439   7.049  -9.543  1.00  0.00    -0.018 A 
HETATM   38  C34 UNL     1      21.916   5.445 -11.285  1.00  0.00     0.002 A 
HETATM   39  C35 UNL     1      22.245   5.486  -9.919  1.00  0.00     0.001 A 
HETATM   40  C36 UNL     1      21.496   6.279  -9.035  1.00  0.00     0.010 A 
BRANCH  31  41
HETATM   41  C23 UNL     1      13.949   7.392 -11.427  1.00  0.00     0.073 C 
BRANCH  41  42
HETATM   42  C24 UNL     1      12.516   7.860 -11.396  1.00  0.00    -0.056 A 
HETATM   43  C25 UNL     1      12.157   9.077 -12.004  1.00  0.00     0.007 A 
HETATM   44  C26 UNL     1      10.830   9.513 -11.979  1.00  0.00     0.001 A 
HETATM   45  C27 UNL     1       9.851   8.742 -11.346  1.00  0.00     0.000 A 
HETATM   46  C28 UNL     1      10.199   7.535 -10.733  1.00  0.00     0.001 A 
HETATM   47  C29 UNL     1      11.526   7.093 -10.757  1.00  0.00     0.007 A 
ENDBRANCH  41  42
ENDBRANCH  31  41
ENDBRANCH  13  21
BRANCH   1  48
HETATM   48  C2  UNL     1      16.676   7.293  -3.725  1.00  0.00     0.073 C 
BRANCH  48  49
HETATM   49  C3  UNL     1      16.551   6.241  -2.653  1.00  0.00    -0.056 A 
HETATM   50  C4  UNL     1      16.083   4.954  -2.968  1.00  0.00     0.007 A 
HETATM   51  C5  UNL     1      15.980   3.977  -1.973  1.00  0.00     0.001 A 
HETATM   52  C6  UNL     1      16.340   4.279  -0.656  1.00  0.00     0.000 A 
HETATM   53  C7  UNL     1      16.813   5.555  -0.337  1.00  0.00     0.001 A 
HETATM   54  C8  UNL     1      16.919   6.534  -1.330  1.00  0.00     0.007 A 
ENDBRANCH  48  49
ENDBRANCH   1  48
TORSDOF 5
ENDMDL
MODEL 16
REMARK VINA RESULT:     -11.0      3.925      8.885
REMARK  5 active torsions:
REMARK  status: ('A' for Active; 'I' for Inactive)
REMARK    1  A    between atoms: C1_1  and  C2_2 
REMARK    2  A    between atoms: C2_2  and  C3_3 
REMARK    3  A    between atoms: C17_20  and  C18_21 
REMARK    4  A    between atoms: C22_28  and  C23_29 
REMARK    5  A    between atoms: C23_29  and  C24_30 
ROOT
HETATM    1  C1  UNL     1      16.591   9.782  -8.788  1.00  0.00     0.181 C 
HETATM    2  C9  UNL     1      17.997  10.062  -8.295  1.00  0.00     0.245 C 
HETATM    3  O1  UNL     1      18.887  10.485  -9.079  1.00  0.00    -0.271 OA
HETATM    4  N1  UNL     1      18.283   9.862  -6.913  1.00  0.00    -0.314 N 
HETATM    5  C10 UNL     1      19.477  10.096  -6.162  1.00  0.00     0.202 C 
HETATM    6  N2  UNL     1      20.812  10.026  -6.713  1.00  0.00    -0.367 N 
HETATM    7  C11 UNL     1      21.511  10.001  -5.453  1.00  0.00     0.036 A 
HETATM    8  C12 UNL     1      22.818  10.428  -5.230  1.00  0.00     0.030 A 
HETATM    9  C13 UNL     1      23.297  10.446  -3.910  1.00  0.00     0.002 A 
HETATM   10  C14 UNL     1      22.465  10.060  -2.837  1.00  0.00     0.001 A 
HETATM   11  C15 UNL     1      21.147   9.641  -3.073  1.00  0.00     0.010 A 
HETATM   12  C16 UNL     1      20.687   9.620  -4.389  1.00  0.00    -0.018 A 
HETATM   13  C17 UNL     1      19.392   9.128  -4.977  1.00  0.00     0.045 C 
HETATM   14  C38 UNL     1      17.956   9.548  -4.532  1.00  0.00     0.054 C 
HETATM   15  C39 UNL     1      17.254   9.984  -5.884  1.00  0.00     0.182 C 
HETATM   16  C40 UNL     1      16.027   9.261  -6.338  1.00  0.00     0.241 C 
HETATM   17  O4  UNL     1      15.179   8.853  -5.500  1.00  0.00    -0.271 OA
HETATM   18  N6  UNL     1      15.779   9.112  -7.748  1.00  0.00    -0.346 N 
HETATM   19  H13 UNL     1      21.145  10.550  -7.552  1.00  0.00     0.161 HD
HETATM   20  H36 UNL     1      14.859   8.698  -8.020  1.00  0.00     0.163 HD
ENDROOT
BRANCH  13  21
HETATM   21  C18 UNL     1      19.513   7.518  -5.206  1.00  0.00     0.045 A 
HETATM   22  C19 UNL     1      20.905   6.973  -5.729  1.00  0.00     0.202 A 
HETATM   23  N3  UNL     1      20.656   6.417  -7.048  1.00  0.00    -0.314 N 
HETATM   24  N5  UNL     1      21.314   5.923  -4.803  1.00  0.00    -0.367 N 
HETATM   25  C20 UNL     1      19.294   6.603  -7.489  1.00  0.00     0.182 C 
HETATM   26  C30 UNL     1      21.641   5.760  -7.857  1.00  0.00     0.245 C 
HETATM   27  C21 UNL     1      18.830   5.414  -8.278  1.00  0.00     0.241 C 
HETATM   28  C31 UNL     1      18.512   6.852  -6.205  1.00  0.00     0.054 C 
HETATM   29  O2  UNL     1      17.600   5.161  -8.384  1.00  0.00    -0.271 OA
HETATM   30  N4  UNL     1      19.787   4.617  -8.989  1.00  0.00    -0.346 N 
HETATM   31  C22 UNL     1      21.207   4.991  -9.087  1.00  0.00     0.181 C 
HETATM   32  H18 UNL     1      19.415   3.857  -9.600  1.00  0.00     0.163 HD
HETATM   33  O3  UNL     1      22.864   5.877  -7.573  1.00  0.00    -0.271 OA
HETATM   34  C32 UNL     1      20.421   5.901  -3.715  1.00  0.00     0.036 A 
HETATM   35  H29 UNL     1      22.189   5.361  -4.873  1.00  0.00     0.161 HD
HETATM   36  C33 UNL     1      20.521   5.074  -2.598  1.00  0.00     0.030 A 
HETATM   37  C37 UNL     1      19.387   6.786  -3.879  1.00  0.00    -0.018 A 
HETATM   38  C34 UNL     1      19.518   5.152  -1.620  1.00  0.00     0.002 A 
HETATM   39  C35 UNL     1      18.434   6.031  -1.789  1.00  0.00     0.001 A 
HETATM   40  C36 UNL     1      18.355   6.844  -2.930  1.00  0.00     0.010 A 
BRANCH  31  41
HETATM   41  C23 UNL     1      22.076   3.729  -9.283  1.00  0.00     0.073 C 
BRANCH  41  42
HETATM   42  C24 UNL     1      22.178   3.331 -10.734  1.00  0.00    -0.056 A 
HETATM   43  C25 UNL     1      21.711   4.199 -11.738  1.00  0.00     0.007 A 
HETATM   44  C26 UNL     1      21.805   3.835 -13.084  1.00  0.00     0.001 A 
HETATM   45  C27 UNL     1      22.362   2.604 -13.439  1.00  0.00     0.000 A 
HETATM   46  C28 UNL     1      22.824   1.732 -12.448  1.00  0.00     0.001 A 
HETATM   47  C29 UNL     1      22.733   2.093 -11.100  1.00  0.00     0.007 A 
ENDBRANCH  41  42
ENDBRANCH  31  41
ENDBRANCH  13  21
BRANCH   1  48
HETATM   48  C2  UNL     1      16.638   8.922 -10.069  1.00  0.00     0.073 C 
BRANCH  48  49
HETATM   49  C3  UNL     1      15.307   8.286 -10.377  1.00  0.00    -0.056 A 
HETATM   50  C4  UNL     1      15.107   6.912 -10.166  1.00  0.00     0.007 A 
HETATM   51  C5  UNL     1      13.867   6.327 -10.442  1.00  0.00     0.001 A 
HETATM   52  C6  UNL     1      12.819   7.111 -10.934  1.00  0.00     0.000 A 
HETATM   53  C7  UNL     1      13.008   8.480 -11.142  1.00  0.00     0.001 A 
HETATM   54  C8  UNL     1      14.246   9.068 -10.865  1.00  0.00     0.007 A 
ENDBRANCH  48  49
ENDBRANCH   1  48
TORSDOF 5
ENDMDL
MODEL 17
REMARK VINA RESULT:     -10.9      8.681     13.974
REMARK  5 active torsions:
REMARK  status: ('A' for Active; 'I' for Inactive)
REMARK    1  A    between atoms: C1_1  and  C2_2 
REMARK    2  A    between atoms: C2_2  and  C3_3 
REMARK    3  A    between atoms: C17_20  and  C18_21 
REMARK    4  A    between atoms: C22_28  and  C23_29 
REMARK    5  A    between atoms: C23_29  and  C24_30 
ROOT
HETATM    1  C1  UNL     1      15.445  14.007   7.552  1.00  0.00     0.181 C 
HETATM    2  C9  UNL     1      16.928  13.832   7.291  1.00  0.00     0.245 C 
HETATM    3  O1  UNL     1      17.419  14.070   6.155  1.00  0.00    -0.271 OA
HETATM    4  N1  UNL     1      17.763  13.420   8.370  1.00  0.00    -0.314 N 
HETATM    5  C10 UNL     1      19.179  13.235   8.439  1.00  0.00     0.202 C 
HETATM    6  N2  UNL     1      20.005  12.853   7.315  1.00  0.00    -0.367 N 
HETATM    7  C11 UNL     1      21.176  12.506   8.080  1.00  0.00     0.036 A 
HETATM    8  C12 UNL     1      22.492  12.528   7.623  1.00  0.00     0.030 A 
HETATM    9  C13 UNL     1      23.522  12.276   8.545  1.00  0.00     0.002 A 
HETATM   10  C14 UNL     1      23.227  12.028   9.903  1.00  0.00     0.001 A 
HETATM   11  C15 UNL     1      21.897  12.018  10.354  1.00  0.00     0.010 A 
HETATM   12  C16 UNL     1      20.885  12.261   9.427  1.00  0.00    -0.018 A 
HETATM   13  C17 UNL     1      19.387  12.212   9.561  1.00  0.00     0.045 C 
HETATM   14  C38 UNL     1      18.528  12.966  10.624  1.00  0.00     0.054 C 
HETATM   15  C39 UNL     1      17.432  13.716   9.761  1.00  0.00     0.182 C 
HETATM   16  C40 UNL     1      15.986  13.414   9.991  1.00  0.00     0.241 C 
HETATM   17  O4  UNL     1      15.561  13.173  11.152  1.00  0.00    -0.271 OA
HETATM   18  N6  UNL     1      15.068  13.485   8.885  1.00  0.00    -0.346 N 
HETATM   19  H13 UNL     1      20.037  13.348   6.396  1.00  0.00     0.161 HD
HETATM   20  H36 UNL     1      14.054  13.372   9.111  1.00  0.00     0.163 HD
ENDROOT
BRANCH  13  21
HETATM   21  C18 UNL     1      18.908  10.664   9.377  1.00  0.00     0.045 A 
HETATM   22  C19 UNL     1      19.016  10.050   7.921  1.00  0.00     0.202 A 
HETATM   23  N3  UNL     1      17.656   9.768   7.495  1.00  0.00    -0.314 N 
HETATM   24  N5  UNL     1      19.777   8.813   8.048  1.00  0.00    -0.367 N 
HETATM   25  C20 UNL     1      16.666  10.195   8.455  1.00  0.00     0.182 C 
HETATM   26  C30 UNL     1      17.302   9.145   6.253  1.00  0.00     0.245 C 
HETATM   27  C21 UNL     1      15.518   9.229   8.492  1.00  0.00     0.241 C 
HETATM   28  C31 UNL     1      17.435  10.311   9.765  1.00  0.00     0.054 C 
HETATM   29  O2  UNL     1      14.783   9.153   9.512  1.00  0.00    -0.271 OA
HETATM   30  N4  UNL     1      15.204   8.456   7.325  1.00  0.00    -0.346 N 
HETATM   31  C22 UNL     1      15.883   8.662   6.036  1.00  0.00     0.181 C 
HETATM   32  H18 UNL     1      14.344   7.866   7.361  1.00  0.00     0.163 HD
HETATM   33  O3  UNL     1      18.156   9.059   5.329  1.00  0.00    -0.271 OA
HETATM   34  C32 UNL     1      20.268   8.711   9.363  1.00  0.00     0.036 A 
HETATM   35  H29 UNL     1      20.018   8.167   7.266  1.00  0.00     0.161 HD
HETATM   36  C33 UNL     1      21.091   7.696   9.848  1.00  0.00     0.030 A 
HETATM   37  C37 UNL     1      19.821   9.733  10.160  1.00  0.00    -0.018 A 
HETATM   38  C34 UNL     1      21.457   7.726  11.202  1.00  0.00     0.002 A 
HETATM   39  C35 UNL     1      20.980   8.749  12.040  1.00  0.00     0.001 A 
HETATM   40  C36 UNL     1      20.144   9.752  11.525  1.00  0.00     0.010 A 
BRANCH  31  41
HETATM   41  C23 UNL     1      15.866   7.356   5.211  1.00  0.00     0.073 C 
BRANCH  41  42
HETATM   42  C24 UNL     1      15.257   7.557   3.846  1.00  0.00    -0.056 A 
HETATM   43  C25 UNL     1      14.721   8.807   3.489  1.00  0.00     0.007 A 
HETATM   44  C26 UNL     1      14.158   8.998   2.224  1.00  0.00     0.001 A 
HETATM   45  C27 UNL     1      14.123   7.944   1.307  1.00  0.00     0.000 A 
HETATM   46  C28 UNL     1      14.648   6.696   1.655  1.00  0.00     0.001 A 
HETATM   47  C29 UNL     1      15.214   6.500   2.919  1.00  0.00     0.007 A 
ENDBRANCH  41  42
ENDBRANCH  31  41
ENDBRANCH  13  21
BRANCH   1  48
HETATM   48  C2  UNL     1      14.625  13.304   6.449  1.00  0.00     0.073 C 
BRANCH  48  49
HETATM   49  C3  UNL     1      13.176  13.722   6.463  1.00  0.00    -0.056 A 
HETATM   50  C4  UNL     1      12.805  14.992   6.935  1.00  0.00     0.007 A 
HETATM   51  C5  UNL     1      11.461  15.380   6.935  1.00  0.00     0.001 A 
HETATM   52  C6  UNL     1      10.480  14.502   6.467  1.00  0.00     0.000 A 
HETATM   53  C7  UNL     1      10.842  13.239   5.989  1.00  0.00     0.001 A 
HETATM   54  C8  UNL     1      12.185  12.848   5.986  1.00  0.00     0.007 A 
ENDBRANCH  48  49
ENDBRANCH   1  48
TORSDOF 5
ENDMDL
MODEL 18
REMARK VINA RESULT:     -10.8      3.734      7.927
REMARK  5 active torsions:
REMARK  status: ('A' for Active; 'I' for Inactive)
REMARK    1  A    between atoms: C1_1  and  C2_2 
REMARK    2  A    between atoms: C2_2  and  C3_3 
REMARK    3  A    between atoms: C17_20  and  C18_21 
REMARK    4  A    between atoms: C22_28  and  C23_29 
REMARK    5  A    between atoms: C23_29  and  C24_30 
ROOT
HETATM    1  C1  UNL     1      16.633   9.671  -8.836  1.00  0.00     0.181 C 
HETATM    2  C9  UNL     1      18.048   9.891  -8.338  1.00  0.00     0.245 C 
HETATM    3  O1  UNL     1      18.971  10.218  -9.130  1.00  0.00    -0.271 OA
HETATM    4  N1  UNL     1      18.306   9.748  -6.943  1.00  0.00    -0.314 N 
HETATM    5  C10 UNL     1      19.503   9.949  -6.188  1.00  0.00     0.202 C 
HETATM    6  N2  UNL     1      20.838   9.770  -6.715  1.00  0.00    -0.367 N 
HETATM    7  C11 UNL     1      21.519   9.770  -5.446  1.00  0.00     0.036 A 
HETATM    8  C12 UNL     1      22.847  10.129  -5.227  1.00  0.00     0.030 A 
HETATM    9  C13 UNL     1      23.312  10.188  -3.903  1.00  0.00     0.002 A 
HETATM   10  C14 UNL     1      22.447   9.910  -2.823  1.00  0.00     0.001 A 
HETATM   11  C15 UNL     1      21.107   9.558  -3.056  1.00  0.00     0.010 A 
HETATM   12  C16 UNL     1      20.662   9.496  -4.375  1.00  0.00    -0.018 A 
HETATM   13  C17 UNL     1      19.346   9.052  -4.956  1.00  0.00     0.045 C 
HETATM   14  C38 UNL     1      17.933   9.581  -4.554  1.00  0.00     0.054 C 
HETATM   15  C39 UNL     1      17.274   9.985  -5.936  1.00  0.00     0.182 C 
HETATM   16  C40 UNL     1      16.010   9.315  -6.370  1.00  0.00     0.241 C 
HETATM   17  O4  UNL     1      15.131   9.004  -5.524  1.00  0.00    -0.271 OA
HETATM   18  N6  UNL     1      15.770   9.107  -7.773  1.00  0.00    -0.346 N 
HETATM   19  H13 UNL     1      21.211  10.228  -7.576  1.00  0.00     0.161 HD
HETATM   20  H36 UNL     1      14.830   8.734  -8.037  1.00  0.00     0.163 HD
ENDROOT
BRANCH  13  21
HETATM   21  C18 UNL     1      19.371   7.428  -5.098  1.00  0.00     0.045 A 
HETATM   22  C19 UNL     1      20.724   6.776  -5.601  1.00  0.00     0.202 A 
HETATM   23  N3  UNL     1      20.430   6.166  -6.887  1.00  0.00    -0.314 N 
HETATM   24  N5  UNL     1      21.082   5.755  -4.623  1.00  0.00    -0.367 N 
HETATM   25  C20 UNL     1      19.076   6.407  -7.327  1.00  0.00     0.182 C 
HETATM   26  C30 UNL     1      21.366   5.410  -7.666  1.00  0.00     0.245 C 
HETATM   27  C21 UNL     1      18.535   5.206  -8.048  1.00  0.00     0.241 C 
HETATM   28  C31 UNL     1      18.324   6.768  -6.052  1.00  0.00     0.054 C 
HETATM   29  O2  UNL     1      17.292   5.020  -8.130  1.00  0.00    -0.271 OA
HETATM   30  N4  UNL     1      19.437   4.318  -8.722  1.00  0.00    -0.346 N 
HETATM   31  C22 UNL     1      20.876   4.603  -8.850  1.00  0.00     0.181 C 
HETATM   32  H18 UNL     1      19.016   3.550  -9.288  1.00  0.00     0.163 HD
HETATM   33  O3  UNL     1      22.598   5.471  -7.399  1.00  0.00    -0.271 OA
HETATM   34  C32 UNL     1      20.201   5.842  -3.530  1.00  0.00     0.036 A 
HETATM   35  H29 UNL     1      21.922   5.139  -4.670  1.00  0.00     0.161 HD
HETATM   36  C33 UNL     1      20.265   5.072  -2.370  1.00  0.00     0.030 A 
HETATM   37  C37 UNL     1      19.218   6.776  -3.733  1.00  0.00    -0.018 A 
HETATM   38  C34 UNL     1      19.278   5.260  -1.390  1.00  0.00     0.002 A 
HETATM   39  C35 UNL     1      18.245   6.190  -1.598  1.00  0.00     0.001 A 
HETATM   40  C36 UNL     1      18.201   6.945  -2.781  1.00  0.00     0.010 A 
BRANCH  31  41
HETATM   41  C23 UNL     1      21.669   3.284  -8.984  1.00  0.00     0.073 C 
BRANCH  41  42
HETATM   42  C24 UNL     1      20.978   2.134  -8.295  1.00  0.00    -0.056 A 
HETATM   43  C25 UNL     1      20.230   1.208  -9.045  1.00  0.00     0.007 A 
HETATM   44  C26 UNL     1      19.590   0.140  -8.410  1.00  0.00     0.001 A 
HETATM   45  C27 UNL     1      19.687  -0.010  -7.024  1.00  0.00     0.000 A 
HETATM   46  C28 UNL     1      20.423   0.909  -6.270  1.00  0.00     0.001 A 
HETATM   47  C29 UNL     1      21.066   1.978  -6.901  1.00  0.00     0.007 A 
ENDBRANCH  41  42
ENDBRANCH  31  41
ENDBRANCH  13  21
BRANCH   1  48
HETATM   48  C2  UNL     1      16.642   8.743 -10.069  1.00  0.00     0.073 C 
BRANCH  48  49
HETATM   49  C3  UNL     1      15.280   8.164 -10.356  1.00  0.00    -0.056 A 
HETATM   50  C4  UNL     1      14.255   8.974 -10.873  1.00  0.00     0.007 A 
HETATM   51  C5  UNL     1      12.997   8.430 -11.149  1.00  0.00     0.001 A 
HETATM   52  C6  UNL     1      12.752   7.075 -10.908  1.00  0.00     0.000 A 
HETATM   53  C7  UNL     1      13.769   6.262 -10.399  1.00  0.00     0.001 A 
HETATM   54  C8  UNL     1      15.029   6.801 -10.124  1.00  0.00     0.007 A 
ENDBRANCH  48  49
ENDBRANCH   1  48
TORSDOF 5
ENDMDL
MODEL 19
REMARK VINA RESULT:     -10.8      7.482     12.557
REMARK  5 active torsions:
REMARK  status: ('A' for Active; 'I' for Inactive)
REMARK    1  A    between atoms: C1_1  and  C2_2 
REMARK    2  A    between atoms: C2_2  and  C3_3 
REMARK    3  A    between atoms: C17_20  and  C18_21 
REMARK    4  A    between atoms: C22_28  and  C23_29 
REMARK    5  A    between atoms: C23_29  and  C24_30 
ROOT
HETATM    1  C1  UNL     1      20.331   0.793  -6.066  1.00  0.00     0.181 C 
HETATM    2  C9  UNL     1      20.297  -0.711  -5.878  1.00  0.00     0.245 C 
HETATM    3  O1  UNL     1      19.775  -1.226  -4.854  1.00  0.00    -0.271 OA
HETATM    4  N1  UNL     1      20.845  -1.535  -6.904  1.00  0.00    -0.314 N 
HETATM    5  C10 UNL     1      20.899  -2.958  -7.032  1.00  0.00     0.202 C 
HETATM    6  N2  UNL     1      20.948  -3.875  -5.915  1.00  0.00    -0.367 N 
HETATM    7  C11 UNL     1      21.332  -5.039  -6.671  1.00  0.00     0.036 A 
HETATM    8  C12 UNL     1      21.083  -6.364  -6.322  1.00  0.00     0.030 A 
HETATM    9  C13 UNL     1      21.422  -7.371  -7.241  1.00  0.00     0.002 A 
HETATM   10  C14 UNL     1      21.982  -7.042  -8.494  1.00  0.00     0.001 A 
HETATM   11  C15 UNL     1      22.220  -5.702  -8.839  1.00  0.00     0.010 A 
HETATM   12  C16 UNL     1      21.886  -4.714  -7.914  1.00  0.00    -0.018 A 
HETATM   13  C17 UNL     1      22.112  -3.226  -7.930  1.00  0.00     0.045 C 
HETATM   14  C38 UNL     1      21.691  -2.239  -9.064  1.00  0.00     0.054 C 
HETATM   15  C39 UNL     1      20.887  -1.108  -8.300  1.00  0.00     0.182 C 
HETATM   16  C40 UNL     1      21.373   0.304  -8.361  1.00  0.00     0.241 C 
HETATM   17  O4  UNL     1      21.897   0.754  -9.414  1.00  0.00    -0.271 OA
HETATM   18  N6  UNL     1      21.159   1.171  -7.232  1.00  0.00    -0.346 N 
HETATM   19  H13 UNL     1      20.268  -3.894  -5.123  1.00  0.00     0.161 HD
HETATM   20  H36 UNL     1      21.418   2.175  -7.358  1.00  0.00     0.163 HD
ENDROOT
BRANCH  13  21
HETATM   21  C18 UNL     1      23.625  -2.933  -7.396  1.00  0.00     0.045 A 
HETATM   22  C19 UNL     1      24.364  -4.121  -6.655  1.00  0.00     0.202 A 
HETATM   23  N3  UNL     1      24.568  -3.684  -5.284  1.00  0.00    -0.314 N 
HETATM   24  N5  UNL     1      25.646  -4.296  -7.329  1.00  0.00    -0.367 N 
HETATM   25  C20 UNL     1      23.981  -2.393  -5.014  1.00  0.00     0.182 C 
HETATM   26  C30 UNL     1      25.260  -4.437  -4.281  1.00  0.00     0.245 C 
HETATM   27  C21 UNL     1      24.843  -1.613  -4.064  1.00  0.00     0.241 C 
HETATM   28  C31 UNL     1      23.821  -1.755  -6.388  1.00  0.00     0.054 C 
HETATM   29  O2  UNL     1      24.773  -0.355  -4.027  1.00  0.00    -0.271 OA
HETATM   30  N4  UNL     1      25.682  -2.309  -3.132  1.00  0.00    -0.346 N 
HETATM   31  C22 UNL     1      25.641  -3.772  -2.975  1.00  0.00     0.181 C 
HETATM   32  H18 UNL     1      26.193  -1.734  -2.427  1.00  0.00     0.163 HD
HETATM   33  O3  UNL     1      25.494  -5.663  -4.467  1.00  0.00    -0.271 OA
HETATM   34  C32 UNL     1      25.677  -3.475  -8.471  1.00  0.00     0.036 A 
HETATM   35  H29 UNL     1      26.372  -5.000  -7.076  1.00  0.00     0.161 HD
HETATM   36  C33 UNL     1      26.713  -3.415  -9.402  1.00  0.00     0.030 A 
HETATM   37  C37 UNL     1      24.559  -2.687  -8.571  1.00  0.00    -0.018 A 
HETATM   38  C34 UNL     1      26.601  -2.507 -10.466  1.00  0.00     0.002 A 
HETATM   39  C35 UNL     1      25.476  -1.670 -10.564  1.00  0.00     0.001 A 
HETATM   40  C36 UNL     1      24.453  -1.746  -9.605  1.00  0.00     0.010 A 
BRANCH  31  41
HETATM   41  C23 UNL     1      27.005  -4.291  -2.469  1.00  0.00     0.073 C 
BRANCH  41  42
HETATM   42  C24 UNL     1      26.863  -5.156  -1.242  1.00  0.00    -0.056 A 
HETATM   43  C25 UNL     1      27.265  -4.671   0.015  1.00  0.00     0.007 A 
HETATM   44  C26 UNL     1      27.133  -5.469   1.154  1.00  0.00     0.001 A 
HETATM   45  C27 UNL     1      26.601  -6.758   1.048  1.00  0.00     0.000 A 
HETATM   46  C28 UNL     1      26.204  -7.251  -0.198  1.00  0.00     0.001 A 
HETATM   47  C29 UNL     1      26.334  -6.455  -1.341  1.00  0.00     0.007 A 
ENDBRANCH  41  42
ENDBRANCH  31  41
ENDBRANCH  13  21
BRANCH   1  48
HETATM   48  C2  UNL     1      20.860   1.476  -4.787  1.00  0.00     0.073 C 
BRANCH  48  49
HETATM   49  C3  UNL     1      19.932   2.557  -4.294  1.00  0.00    -0.056 A 
HETATM   50  C4  UNL     1      18.987   3.135  -5.157  1.00  0.00     0.007 A 
HETATM   51  C5  UNL     1      18.121   4.130  -4.693  1.00  0.00     0.001 A 
HETATM   52  C6  UNL     1      18.195   4.557  -3.364  1.00  0.00     0.000 A 
HETATM   53  C7  UNL     1      19.128   3.982  -2.497  1.00  0.00     0.001 A 
HETATM   54  C8  UNL     1      19.995   2.985  -2.957  1.00  0.00     0.007 A 
ENDBRANCH  48  49
ENDBRANCH   1  48
TORSDOF 5
ENDMDL
MODEL 20
REMARK VINA RESULT:     -10.8      3.361      6.496
REMARK  5 active torsions:
REMARK  status: ('A' for Active; 'I' for Inactive)
REMARK    1  A    between atoms: C1_1  and  C2_2 
REMARK    2  A    between atoms: C2_2  and  C3_3 
REMARK    3  A    between atoms: C17_20  and  C18_21 
REMARK    4  A    between atoms: C22_28  and  C23_29 
REMARK    5  A    between atoms: C23_29  and  C24_30 
ROOT
HETATM    1  C1  UNL     1      22.422   5.319  -9.740  1.00  0.00     0.181 C 
HETATM    2  C9  UNL     1      22.879   5.974  -8.451  1.00  0.00     0.245 C 
HETATM    3  O1  UNL     1      23.823   5.488  -7.774  1.00  0.00    -0.271 OA
HETATM    4  N1  UNL     1      22.233   7.175  -8.035  1.00  0.00    -0.314 N 
HETATM    5  C10 UNL     1      22.484   8.034  -6.920  1.00  0.00     0.202 C 
HETATM    6  N2  UNL     1      23.037   7.591  -5.659  1.00  0.00    -0.367 N 
HETATM    7  C11 UNL     1      22.713   8.778  -4.909  1.00  0.00     0.036 A 
HETATM    8  C12 UNL     1      23.378   9.239  -3.775  1.00  0.00     0.030 A 
HETATM    9  C13 UNL     1      23.002  10.484  -3.243  1.00  0.00     0.002 A 
HETATM   10  C14 UNL     1      21.991  11.254  -3.857  1.00  0.00     0.001 A 
HETATM   11  C15 UNL     1      21.335  10.783  -5.006  1.00  0.00     0.010 A 
HETATM   12  C16 UNL     1      21.712   9.542  -5.518  1.00  0.00    -0.018 A 
HETATM   13  C17 UNL     1      21.143   8.722  -6.644  1.00  0.00     0.045 C 
HETATM   14  C38 UNL     1      20.906   9.202  -8.110  1.00  0.00     0.054 C 
HETATM   15  C39 UNL     1      21.622   8.096  -8.990  1.00  0.00     0.182 C 
HETATM   16  C40 UNL     1      20.818   7.310  -9.975  1.00  0.00     0.241 C 
HETATM   17  O4  UNL     1      19.878   7.855 -10.612  1.00  0.00    -0.271 OA
HETATM   18  N6  UNL     1      21.184   5.946 -10.253  1.00  0.00    -0.346 N 
HETATM   19  H13 UNL     1      23.928   7.057  -5.548  1.00  0.00     0.161 HD
HETATM   20  H36 UNL     1      20.664   5.470 -11.024  1.00  0.00     0.163 HD
ENDROOT
BRANCH  13  21
HETATM   21  C18 UNL     1      19.874   7.873  -6.068  1.00  0.00     0.045 A 
HETATM   22  C19 UNL     1      19.700   7.829  -4.494  1.00  0.00     0.202 A 
HETATM   23  N3  UNL     1      19.886   6.442  -4.102  1.00  0.00    -0.314 N 
HETATM   24  N5  UNL     1      18.335   8.258  -4.216  1.00  0.00    -0.367 N 
HETATM   25  C20 UNL     1      20.241   5.587  -5.210  1.00  0.00     0.182 C 
HETATM   26  C30 UNL     1      19.752   5.946  -2.764  1.00  0.00     0.245 C 
HETATM   27  C21 UNL     1      19.608   4.235  -5.055  1.00  0.00     0.241 C 
HETATM   28  C31 UNL     1      19.786   6.359  -6.443  1.00  0.00     0.054 C 
HETATM   29  O2  UNL     1      19.417   3.502  -6.062  1.00  0.00    -0.271 OA
HETATM   30  N4  UNL     1      19.302   3.741  -3.744  1.00  0.00    -0.346 N 
HETATM   31  C22 UNL     1      19.704   4.452  -2.520  1.00  0.00     0.181 C 
HETATM   32  H18 UNL     1      18.950   2.761  -3.673  1.00  0.00     0.163 HD
HETATM   33  O3  UNL     1      19.735   6.754  -1.795  1.00  0.00    -0.271 OA
HETATM   34  C32 UNL     1      17.744   8.706  -5.411  1.00  0.00     0.036 A 
HETATM   35  H29 UNL     1      17.905   8.333  -3.269  1.00  0.00     0.161 HD
HETATM   36  C33 UNL     1      16.467   9.250  -5.534  1.00  0.00     0.030 A 
HETATM   37  C37 UNL     1      18.568   8.525  -6.493  1.00  0.00    -0.018 A 
HETATM   38  C34 UNL     1      16.016   9.610  -6.813  1.00  0.00     0.002 A 
HETATM   39  C35 UNL     1      16.836   9.400  -7.935  1.00  0.00     0.001 A 
HETATM   40  C36 UNL     1      18.114   8.841  -7.782  1.00  0.00     0.010 A 
BRANCH  31  41
HETATM   41  C23 UNL     1      18.735   4.112  -1.365  1.00  0.00     0.073 C 
BRANCH  41  42
HETATM   42  C24 UNL     1      17.455   4.905  -1.449  1.00  0.00    -0.056 A 
HETATM   43  C25 UNL     1      16.982   5.602  -0.322  1.00  0.00     0.007 A 
HETATM   44  C26 UNL     1      15.796   6.338  -0.395  1.00  0.00     0.001 A 
HETATM   45  C27 UNL     1      15.073   6.384  -1.590  1.00  0.00     0.000 A 
HETATM   46  C28 UNL     1      15.532   5.690  -2.713  1.00  0.00     0.001 A 
HETATM   47  C29 UNL     1      16.719   4.952  -2.645  1.00  0.00     0.007 A 
ENDBRANCH  41  42
ENDBRANCH  31  41
ENDBRANCH  13  21
BRANCH   1  48
HETATM   48  C2  UNL     1      22.207   3.807  -9.519  1.00  0.00     0.073 C 
BRANCH  48  49
HETATM   49  C3  UNL     1      23.265   2.976 -10.199  1.00  0.00    -0.056 A 
HETATM   50  C4  UNL     1      24.554   2.872  -9.649  1.00  0.00     0.007 A 
HETATM   51  C5  UNL     1      25.529   2.091 -10.276  1.00  0.00     0.001 A 
HETATM   52  C6  UNL     1      25.225   1.410 -11.459  1.00  0.00     0.000 A 
HETATM   53  C7  UNL     1      23.943   1.504 -12.009  1.00  0.00     0.001 A 
HETATM   54  C8  UNL     1      22.965   2.282 -11.383  1.00  0.00     0.007 A 
ENDBRANCH  48  49
ENDBRANCH   1  48
TORSDOF 5
ENDMDL
