REMARK  5 active torsions:
REMARK  status: ('A' for Active; 'I' for Inactive)
REMARK    1  A    between atoms: C1_1  and  C2_2 
REMARK    2  A    between atoms: C2_2  and  C3_3 
REMARK    3  A    between atoms: C17_20  and  C18_21 
REMARK    4  A    between atoms: C22_28  and  C23_29 
REMARK    5  A    between atoms: C23_29  and  C24_30 
ROOT
HETATM    1  C1  UNL     1       2.869  -0.939   2.343  1.00  0.00     0.181 C 
HETATM    2  C9  UNL     1       2.686  -1.283   0.887  1.00  0.00     0.245 C 
HETATM    3  O1  UNL     1       3.556  -0.966   0.034  1.00  0.00    -0.271 OA
HETATM    4  N1  UNL     1       1.498  -1.968   0.498  1.00  0.00    -0.314 N 
HETATM    5  C10 UNL     1       1.068  -2.477  -0.765  1.00  0.00     0.202 C 
HETATM    6  N2  UNL     1       1.606  -2.056  -2.041  1.00  0.00    -0.367 N 
HETATM    7  C11 UNL     1       0.570  -2.636  -2.856  1.00  0.00     0.036 A 
HETATM    8  C12 UNL     1       0.703  -3.047  -4.181  1.00  0.00     0.030 A 
HETATM    9  C13 UNL     1      -0.372  -3.724  -4.782  1.00  0.00     0.002 A 
HETATM   10  C14 UNL     1      -1.547  -3.997  -4.052  1.00  0.00     0.001 A 
HETATM   11  C15 UNL     1      -1.664  -3.593  -2.712  1.00  0.00     0.010 A 
HETATM   12  C16 UNL     1      -0.594  -2.914  -2.131  1.00  0.00    -0.018 A 
HETATM   13  C17 UNL     1      -0.450  -2.271  -0.778  1.00  0.00     0.045 C 
HETATM   14  C38 UNL     1      -0.712  -2.952   0.604  1.00  0.00     0.054 C 
HETATM   15  C39 UNL     1       0.607  -2.651   1.436  1.00  0.00     0.182 C 
HETATM   16  C40 UNL     1       0.504  -1.847   2.697  1.00  0.00     0.241 C 
HETATM   17  O4  UNL     1      -0.479  -1.993   3.472  1.00  0.00    -0.271 OA
HETATM   18  N6  UNL     1       1.573  -0.949   3.048  1.00  0.00    -0.346 N 
HETATM   19  H13 UNL     1       2.618  -2.084  -2.294  1.00  0.00     0.161 HD
HETATM   20  H36 UNL     1       1.469  -0.362   3.905  1.00  0.00     0.163 HD
ENDROOT
BRANCH  13  21
HETATM   21  C18 UNL     1      -1.089  -0.772  -0.855  1.00  0.00     0.045 A 
HETATM   22  C19 UNL     1      -0.425   0.233  -1.882  1.00  0.00     0.202 A 
HETATM   23  N3  UNL     1       0.104   1.333  -1.093  1.00  0.00    -0.314 N 
HETATM   24  N5  UNL     1      -1.496   0.705  -2.754  1.00  0.00    -0.367 N 
HETATM   25  C20 UNL     1      -0.029   1.124   0.328  1.00  0.00     0.182 C 
HETATM   26  C30 UNL     1       0.733   2.496  -1.641  1.00  0.00     0.245 C 
HETATM   27  C21 UNL     1      -0.326   2.418   1.024  1.00  0.00     0.241 C 
HETATM   28  C31 UNL     1      -1.127   0.077   0.457  1.00  0.00     0.054 C 
HETATM   29  O2  UNL     1      -0.895   2.415   2.150  1.00  0.00    -0.271 OA
HETATM   30  N4  UNL     1       0.121   3.659   0.462  1.00  0.00    -0.346 N 
HETATM   31  C22 UNL     1       0.796   3.776  -0.840  1.00  0.00     0.181 C 
HETATM   32  H18 UNL     1       0.050   4.517   1.055  1.00  0.00     0.163 HD
HETATM   33  O3  UNL     1       1.238   2.454  -2.796  1.00  0.00    -0.271 OA
HETATM   34  C32 UNL     1      -2.682   0.019  -2.438  1.00  0.00     0.036 A 
HETATM   35  H29 UNL     1      -1.373   1.350  -3.565  1.00  0.00     0.161 HD
HETATM   36  C33 UNL     1      -3.919   0.201  -3.057  1.00  0.00     0.030 A 
HETATM   37  C37 UNL     1      -2.513  -0.842  -1.384  1.00  0.00    -0.018 A 
HETATM   38  C34 UNL     1      -5.017  -0.525  -2.576  1.00  0.00     0.002 A 
HETATM   39  C35 UNL     1      -4.864  -1.398  -1.484  1.00  0.00     0.001 A 
HETATM   40  C36 UNL     1      -3.609  -1.550  -0.870  1.00  0.00     0.010 A 
BRANCH  31  41
HETATM   41  C23 UNL     1       0.202   4.960  -1.633  1.00  0.00     0.073 C 
BRANCH  41  42
HETATM   42  C24 UNL     1      -1.259   4.759  -1.966  1.00  0.00    -0.056 A 
HETATM   43  C25 UNL     1      -2.254   5.090  -1.030  1.00  0.00     0.007 A 
HETATM   44  C26 UNL     1      -3.602   4.854  -1.320  1.00  0.00     0.001 A 
HETATM   45  C27 UNL     1      -3.967   4.286  -2.543  1.00  0.00     0.000 A 
HETATM   46  C28 UNL     1      -2.984   3.961  -3.483  1.00  0.00     0.001 A 
HETATM   47  C29 UNL     1      -1.636   4.196  -3.198  1.00  0.00     0.007 A 
ENDBRANCH  41  42
ENDBRANCH  31  41
ENDBRANCH  13  21
BRANCH   1  48
HETATM   48  C2  UNL     1       3.840  -1.934   2.996  1.00  0.00     0.073 C 
BRANCH  48  49
HETATM   49  C3  UNL     1       4.130  -1.566   4.427  1.00  0.00    -0.056 A 
HETATM   50  C4  UNL     1       5.056  -0.550   4.721  1.00  0.00     0.007 A 
HETATM   51  C5  UNL     1       5.314  -0.195   6.049  1.00  0.00     0.001 A 
HETATM   52  C6  UNL     1       4.650  -0.849   7.091  1.00  0.00     0.000 A 
HETATM   53  C7  UNL     1       3.720  -1.851   6.806  1.00  0.00     0.001 A 
HETATM   54  C8  UNL     1       3.458  -2.209   5.480  1.00  0.00     0.007 A 
ENDBRANCH  48  49
ENDBRANCH   1  48
TORSDOF 5
