MODEL 1
REMARK VINA RESULT:     -13.1      0.000      0.000
REMARK  5 active torsions:
REMARK  status: ('A' for Active; 'I' for Inactive)
REMARK    1  A    between atoms: C1_1  and  C2_2 
REMARK    2  A    between atoms: C2_2  and  C3_3 
REMARK    3  A    between atoms: C17_20  and  C18_21 
REMARK    4  A    between atoms: C22_28  and  C23_29 
REMARK    5  A    between atoms: C23_29  and  C24_30 
ROOT
HETATM    1  C1  UNL     1      20.126   9.596  -5.929  1.00  0.00     0.181 C 
HETATM    2  C9  UNL     1      20.040   8.136  -6.293  1.00  0.00     0.245 C 
HETATM    3  O1  UNL     1      19.749   7.779  -7.465  1.00  0.00    -0.271 OA
HETATM    4  N1  UNL     1      20.288   7.169  -5.276  1.00  0.00    -0.314 N 
HETATM    5  C10 UNL     1      20.342   5.743  -5.317  1.00  0.00     0.202 C 
HETATM    6  N2  UNL     1      19.766   4.934  -6.370  1.00  0.00    -0.367 N 
HETATM    7  C11 UNL     1      19.847   3.676  -5.674  1.00  0.00     0.036 A 
HETATM    8  C12 UNL     1      19.935   2.416  -6.264  1.00  0.00     0.030 A 
HETATM    9  C13 UNL     1      20.150   1.303  -5.435  1.00  0.00     0.002 A 
HETATM   10  C14 UNL     1      20.294   1.462  -4.041  1.00  0.00     0.001 A 
HETATM   11  C15 UNL     1      20.220   2.738  -3.458  1.00  0.00     0.010 A 
HETATM   12  C16 UNL     1      19.996   3.833  -4.292  1.00  0.00    -0.018 A 
HETATM   13  C17 UNL     1      19.767   5.286  -3.973  1.00  0.00     0.045 C 
HETATM   14  C38 UNL     1      20.682   6.197  -3.093  1.00  0.00     0.054 C 
HETATM   15  C39 UNL     1      20.937   7.475  -4.001  1.00  0.00     0.182 C 
HETATM   16  C40 UNL     1      20.473   8.816  -3.517  1.00  0.00     0.241 C 
HETATM   17  O4  UNL     1      20.556   9.121  -2.298  1.00  0.00    -0.271 OA
HETATM   18  N6  UNL     1      19.987   9.778  -4.471  1.00  0.00    -0.346 N 
HETATM   19  H13 UNL     1      19.982   5.043  -7.385  1.00  0.00     0.161 HD
HETATM   20  H36 UNL     1      19.625  10.691  -4.117  1.00  0.00     0.163 HD
ENDROOT
BRANCH  13  21
HETATM   21  C18 UNL     1      18.185   5.489  -3.629  1.00  0.00     0.045 A 
HETATM   22  C19 UNL     1      17.832   6.535  -2.494  1.00  0.00     0.202 A 
HETATM   23  N3  UNL     1      17.175   5.784  -1.437  1.00  0.00    -0.314 N 
HETATM   24  N5  UNL     1      16.904   7.494  -3.086  1.00  0.00    -0.367 N 
HETATM   25  C20 UNL     1      17.152   4.363  -1.684  1.00  0.00     0.182 C 
HETATM   26  C30 UNL     1      16.634   6.364  -0.246  1.00  0.00     0.245 C 
HETATM   27  C21 UNL     1      15.871   3.764  -1.189  1.00  0.00     0.241 C 
HETATM   28  C31 UNL     1      17.364   4.235  -3.187  1.00  0.00     0.054 C 
HETATM   29  O2  UNL     1      15.454   2.674  -1.669  1.00  0.00    -0.271 OA
HETATM   30  N4  UNL     1      15.163   4.373  -0.101  1.00  0.00    -0.346 N 
HETATM   31  C22 UNL     1      15.562   5.639   0.534  1.00  0.00     0.181 C 
HETATM   32  H18 UNL     1      14.374   3.837   0.329  1.00  0.00     0.163 HD
HETATM   33  O3  UNL     1      17.053   7.483   0.157  1.00  0.00    -0.271 OA
HETATM   34  C32 UNL     1      16.756   7.206  -4.454  1.00  0.00     0.036 A 
HETATM   35  H29 UNL     1      16.516   8.333  -2.603  1.00  0.00     0.161 HD
HETATM   36  C33 UNL     1      15.948   7.905  -5.351  1.00  0.00     0.030 A 
HETATM   37  C37 UNL     1      17.468   6.094  -4.826  1.00  0.00    -0.018 A 
HETATM   38  C34 UNL     1      15.870   7.445  -6.673  1.00  0.00     0.002 A 
HETATM   39  C35 UNL     1      16.579   6.295  -7.065  1.00  0.00     0.001 A 
HETATM   40  C36 UNL     1      17.373   5.602  -6.136  1.00  0.00     0.010 A 
BRANCH  31  41
HETATM   41  C23 UNL     1      14.322   6.534   0.742  1.00  0.00     0.073 C 
BRANCH  41  42
HETATM   42  C24 UNL     1      14.390   7.329   2.027  1.00  0.00    -0.056 A 
HETATM   43  C25 UNL     1      13.743   8.572   2.129  1.00  0.00     0.007 A 
HETATM   44  C26 UNL     1      13.851   9.329   3.300  1.00  0.00     0.001 A 
HETATM   45  C27 UNL     1      14.605   8.854   4.376  1.00  0.00     0.000 A 
HETATM   46  C28 UNL     1      15.246   7.614   4.285  1.00  0.00     0.001 A 
HETATM   47  C29 UNL     1      15.140   6.853   3.117  1.00  0.00     0.007 A 
ENDBRANCH  41  42
ENDBRANCH  31  41
ENDBRANCH  13  21
BRANCH   1  48
HETATM   48  C2  UNL     1      21.462  10.177  -6.414  1.00  0.00     0.073 C 
BRANCH  48  49
HETATM   49  C3  UNL     1      21.276  11.058  -7.621  1.00  0.00    -0.056 A 
HETATM   50  C4  UNL     1      21.075  12.441  -7.462  1.00  0.00     0.007 A 
HETATM   51  C5  UNL     1      20.920  13.263  -8.582  1.00  0.00     0.001 A 
HETATM   52  C6  UNL     1      20.965  12.714  -9.867  1.00  0.00     0.000 A 
HETATM   53  C7  UNL     1      21.176  11.344 -10.033  1.00  0.00     0.001 A 
HETATM   54  C8  UNL     1      21.333  10.517  -8.916  1.00  0.00     0.007 A 
ENDBRANCH  48  49
ENDBRANCH   1  48
TORSDOF 5
ENDMDL
MODEL 2
REMARK VINA RESULT:     -12.5      1.960      7.973
REMARK  5 active torsions:
REMARK  status: ('A' for Active; 'I' for Inactive)
REMARK    1  A    between atoms: C1_1  and  C2_2 
REMARK    2  A    between atoms: C2_2  and  C3_3 
REMARK    3  A    between atoms: C17_20  and  C18_21 
REMARK    4  A    between atoms: C22_28  and  C23_29 
REMARK    5  A    between atoms: C23_29  and  C24_30 
ROOT
HETATM    1  C1  UNL     1      16.946   6.461  -0.283  1.00  0.00     0.181 C 
HETATM    2  C9  UNL     1      17.868   5.432  -0.886  1.00  0.00     0.245 C 
HETATM    3  O1  UNL     1      18.906   5.060  -0.280  1.00  0.00    -0.271 OA
HETATM    4  N1  UNL     1      17.539   4.896  -2.166  1.00  0.00    -0.314 N 
HETATM    5  C10 UNL     1      18.161   3.885  -2.958  1.00  0.00     0.202 C 
HETATM    6  N2  UNL     1      19.527   3.436  -2.785  1.00  0.00    -0.367 N 
HETATM    7  C11 UNL     1      19.628   2.728  -4.034  1.00  0.00     0.036 A 
HETATM    8  C12 UNL     1      20.472   1.652  -4.300  1.00  0.00     0.030 A 
HETATM    9  C13 UNL     1      20.340   0.987  -5.531  1.00  0.00     0.002 A 
HETATM   10  C14 UNL     1      19.361   1.388  -6.463  1.00  0.00     0.001 A 
HETATM   11  C15 UNL     1      18.503   2.464  -6.178  1.00  0.00     0.010 A 
HETATM   12  C16 UNL     1      18.652   3.121  -4.957  1.00  0.00    -0.018 A 
HETATM   13  C17 UNL     1      17.975   4.347  -4.407  1.00  0.00     0.045 C 
HETATM   14  C38 UNL     1      16.434   4.585  -4.298  1.00  0.00     0.054 C 
HETATM   15  C39 UNL     1      16.219   5.018  -2.785  1.00  0.00     0.182 C 
HETATM   16  C40 UNL     1      15.656   6.376  -2.490  1.00  0.00     0.241 C 
HETATM   17  O4  UNL     1      14.754   6.868  -3.220  1.00  0.00    -0.271 OA
HETATM   18  N6  UNL     1      16.112   7.089  -1.326  1.00  0.00    -0.346 N 
HETATM   19  H13 UNL     1      19.921   3.077  -1.888  1.00  0.00     0.161 HD
HETATM   20  H36 UNL     1      15.746   8.051  -1.156  1.00  0.00     0.163 HD
ENDROOT
BRANCH  13  21
HETATM   21  C18 UNL     1      18.761   5.660  -4.972  1.00  0.00     0.045 A 
HETATM   22  C19 UNL     1      20.213   5.923  -4.399  1.00  0.00     0.202 A 
HETATM   23  N3  UNL     1      20.156   7.203  -3.715  1.00  0.00    -0.314 N 
HETATM   24  N5  UNL     1      21.106   6.004  -5.551  1.00  0.00    -0.367 N 
HETATM   25  C20 UNL     1      18.827   7.761  -3.669  1.00  0.00     0.182 C 
HETATM   26  C30 UNL     1      21.279   7.848  -3.105  1.00  0.00     0.245 C 
HETATM   27  C21 UNL     1      18.878   9.253  -3.804  1.00  0.00     0.241 C 
HETATM   28  C31 UNL     1      18.080   7.056  -4.792  1.00  0.00     0.054 C 
HETATM   29  O2  UNL     1      17.868   9.886  -4.218  1.00  0.00    -0.271 OA
HETATM   30  N4  UNL     1      20.037   9.978  -3.372  1.00  0.00    -0.346 N 
HETATM   31  C22 UNL     1      21.265   9.341  -2.870  1.00  0.00     0.181 C 
HETATM   32  H18 UNL     1      19.970  11.020  -3.319  1.00  0.00     0.163 HD
HETATM   33  O3  UNL     1      22.285   7.169  -2.760  1.00  0.00    -0.271 OA
HETATM   34  C32 UNL     1      20.379   5.711  -6.718  1.00  0.00     0.036 A 
HETATM   35  H29 UNL     1      22.141   6.129  -5.503  1.00  0.00     0.161 HD
HETATM   36  C33 UNL     1      20.892   5.692  -8.015  1.00  0.00     0.030 A 
HETATM   37  C37 UNL     1      19.051   5.492  -6.456  1.00  0.00    -0.018 A 
HETATM   38  C34 UNL     1      20.011   5.439  -9.076  1.00  0.00     0.002 A 
HETATM   39  C35 UNL     1      18.643   5.231  -8.825  1.00  0.00     0.001 A 
HETATM   40  C36 UNL     1      18.151   5.271  -7.509  1.00  0.00     0.010 A 
BRANCH  31  41
HETATM   41  C23 UNL     1      22.501  10.016  -3.502  1.00  0.00     0.073 C 
BRANCH  41  42
HETATM   42  C24 UNL     1      22.579   9.799  -4.997  1.00  0.00    -0.056 A 
HETATM   43  C25 UNL     1      21.845  10.618  -5.873  1.00  0.00     0.007 A 
HETATM   44  C26 UNL     1      21.878  10.382  -7.252  1.00  0.00     0.001 A 
HETATM   45  C27 UNL     1      22.639   9.329  -7.765  1.00  0.00     0.000 A 
HETATM   46  C28 UNL     1      23.378   8.515  -6.901  1.00  0.00     0.001 A 
HETATM   47  C29 UNL     1      23.349   8.748  -5.523  1.00  0.00     0.007 A 
ENDBRANCH  41  42
ENDBRANCH  31  41
ENDBRANCH  13  21
BRANCH   1  48
HETATM   48  C2  UNL     1      16.060   5.805   0.786  1.00  0.00     0.073 C 
BRANCH  48  49
HETATM   49  C3  UNL     1      15.283   6.831   1.567  1.00  0.00    -0.056 A 
HETATM   50  C4  UNL     1      13.970   6.554   1.986  1.00  0.00     0.007 A 
HETATM   51  C5  UNL     1      13.253   7.500   2.726  1.00  0.00     0.001 A 
HETATM   52  C6  UNL     1      13.839   8.726   3.053  1.00  0.00     0.000 A 
HETATM   53  C7  UNL     1      15.147   9.004   2.650  1.00  0.00     0.001 A 
HETATM   54  C8  UNL     1      15.869   8.061   1.911  1.00  0.00     0.007 A 
ENDBRANCH  48  49
ENDBRANCH   1  48
TORSDOF 5
ENDMDL
MODEL 3
REMARK VINA RESULT:     -12.3      2.685      8.813
REMARK  5 active torsions:
REMARK  status: ('A' for Active; 'I' for Inactive)
REMARK    1  A    between atoms: C1_1  and  C2_2 
REMARK    2  A    between atoms: C2_2  and  C3_3 
REMARK    3  A    between atoms: C17_20  and  C18_21 
REMARK    4  A    between atoms: C22_28  and  C23_29 
REMARK    5  A    between atoms: C23_29  and  C24_30 
ROOT
HETATM    1  C1  UNL     1      17.102   4.943  -2.766  1.00  0.00     0.181 C 
HETATM    2  C9  UNL     1      17.709   6.321  -2.698  1.00  0.00     0.245 C 
HETATM    3  O1  UNL     1      17.018   7.315  -2.351  1.00  0.00    -0.271 OA
HETATM    4  N1  UNL     1      19.083   6.474  -3.046  1.00  0.00    -0.314 N 
HETATM    5  C10 UNL     1      19.945   7.611  -3.024  1.00  0.00     0.202 C 
HETATM    6  N2  UNL     1      19.486   8.984  -2.998  1.00  0.00    -0.367 N 
HETATM    7  C11 UNL     1      20.751   9.587  -3.330  1.00  0.00     0.036 A 
HETATM    8  C12 UNL     1      21.159  10.875  -2.990  1.00  0.00     0.030 A 
HETATM    9  C13 UNL     1      22.483  11.253  -3.272  1.00  0.00     0.002 A 
HETATM   10  C14 UNL     1      23.379  10.342  -3.867  1.00  0.00     0.001 A 
HETATM   11  C15 UNL     1      22.962   9.040  -4.191  1.00  0.00     0.010 A 
HETATM   12  C16 UNL     1      21.643   8.681  -3.914  1.00  0.00    -0.018 A 
HETATM   13  C17 UNL     1      20.875   7.426  -4.228  1.00  0.00     0.045 C 
HETATM   14  C38 UNL     1      21.302   5.965  -3.872  1.00  0.00     0.054 C 
HETATM   15  C39 UNL     1      20.027   5.361  -3.141  1.00  0.00     0.182 C 
HETATM   16  C40 UNL     1      19.337   4.175  -3.745  1.00  0.00     0.241 C 
HETATM   17  O4  UNL     1      20.003   3.257  -4.296  1.00  0.00    -0.271 OA
HETATM   18  N6  UNL     1      17.906   4.062  -3.635  1.00  0.00    -0.346 N 
HETATM   19  H13 UNL     1      18.834   9.375  -2.283  1.00  0.00     0.161 HD
HETATM   20  H36 UNL     1      17.433   3.255  -4.098  1.00  0.00     0.163 HD
ENDROOT
BRANCH  13  21
HETATM   21  C18 UNL     1      20.303   7.545  -5.751  1.00  0.00     0.045 A 
HETATM   22  C19 UNL     1      19.482   8.851  -6.103  1.00  0.00     0.202 A 
HETATM   23  N3  UNL     1      18.143   8.409  -6.456  1.00  0.00    -0.314 N 
HETATM   24  N5  UNL     1      20.136   9.455  -7.259  1.00  0.00    -0.367 N 
HETATM   25  C20 UNL     1      17.950   6.991  -6.272  1.00  0.00     0.182 C 
HETATM   26  C30 UNL     1      17.094   9.274  -6.903  1.00  0.00     0.245 C 
HETATM   27  C21 UNL     1      17.058   6.439  -7.343  1.00  0.00     0.241 C 
HETATM   28  C31 UNL     1      19.358   6.413  -6.270  1.00  0.00     0.054 C 
HETATM   29  O2  UNL     1      17.104   5.213  -7.635  1.00  0.00    -0.271 OA
HETATM   30  N4  UNL     1      16.082   7.279  -7.974  1.00  0.00    -0.346 N 
HETATM   31  C22 UNL     1      15.940   8.719  -7.706  1.00  0.00     0.181 C 
HETATM   32  H18 UNL     1      15.367   6.822  -8.585  1.00  0.00     0.163 HD
HETATM   33  O3  UNL     1      17.130  10.504  -6.626  1.00  0.00    -0.271 OA
HETATM   34  C32 UNL     1      21.301   8.728  -7.560  1.00  0.00     0.036 A 
HETATM   35  H29 UNL     1      19.857  10.355  -7.708  1.00  0.00     0.161 HD
HETATM   36  C33 UNL     1      22.189   9.004  -8.600  1.00  0.00     0.030 A 
HETATM   37  C37 UNL     1      21.460   7.646  -6.732  1.00  0.00    -0.018 A 
HETATM   38  C34 UNL     1      23.273   8.138  -8.797  1.00  0.00     0.002 A 
HETATM   39  C35 UNL     1      23.440   7.014  -7.969  1.00  0.00     0.001 A 
HETATM   40  C36 UNL     1      22.521   6.752  -6.937  1.00  0.00     0.010 A 
BRANCH  31  41
HETATM   41  C23 UNL     1      15.767   9.484  -9.036  1.00  0.00     0.073 C 
BRANCH  41  42
HETATM   42  C24 UNL     1      17.087   9.767  -9.717  1.00  0.00    -0.056 A 
HETATM   43  C25 UNL     1      17.893   8.711 -10.175  1.00  0.00     0.007 A 
HETATM   44  C26 UNL     1      19.137   8.974 -10.757  1.00  0.00     0.001 A 
HETATM   45  C27 UNL     1      19.587  10.290 -10.885  1.00  0.00     0.000 A 
HETATM   46  C28 UNL     1      18.789  11.348 -10.439  1.00  0.00     0.001 A 
HETATM   47  C29 UNL     1      17.544  11.090  -9.857  1.00  0.00     0.007 A 
ENDBRANCH  41  42
ENDBRANCH  31  41
ENDBRANCH  13  21
BRANCH   1  48
HETATM   48  C2  UNL     1      16.997   4.349  -1.354  1.00  0.00     0.073 C 
BRANCH  48  49
HETATM   49  C3  UNL     1      15.562   4.193  -0.924  1.00  0.00    -0.056 A 
HETATM   50  C4  UNL     1      14.981   5.130  -0.052  1.00  0.00     0.007 A 
HETATM   51  C5  UNL     1      13.643   4.996   0.335  1.00  0.00     0.001 A 
HETATM   52  C6  UNL     1      12.878   3.931  -0.147  1.00  0.00     0.000 A 
HETATM   53  C7  UNL     1      13.445   3.003  -1.024  1.00  0.00     0.001 A 
HETATM   54  C8  UNL     1      14.782   3.133  -1.414  1.00  0.00     0.007 A 
ENDBRANCH  48  49
ENDBRANCH   1  48
TORSDOF 5
ENDMDL
MODEL 4
REMARK VINA RESULT:     -12.2      3.274      5.827
REMARK  5 active torsions:
REMARK  status: ('A' for Active; 'I' for Inactive)
REMARK    1  A    between atoms: C1_1  and  C2_2 
REMARK    2  A    between atoms: C2_2  and  C3_3 
REMARK    3  A    between atoms: C17_20  and  C18_21 
REMARK    4  A    between atoms: C22_28  and  C23_29 
REMARK    5  A    between atoms: C23_29  and  C24_30 
ROOT
HETATM    1  C1  UNL     1      18.030  11.089  -9.377  1.00  0.00     0.181 C 
HETATM    2  C9  UNL     1      18.488   9.653  -9.415  1.00  0.00     0.245 C 
HETATM    3  O1  UNL     1      17.697   8.731  -9.744  1.00  0.00    -0.271 OA
HETATM    4  N1  UNL     1      19.838   9.365  -9.061  1.00  0.00    -0.314 N 
HETATM    5  C10 UNL     1      20.576   8.142  -9.057  1.00  0.00     0.202 C 
HETATM    6  N2  UNL     1      19.975   6.826  -9.057  1.00  0.00    -0.367 N 
HETATM    7  C11 UNL     1      21.169   6.100  -8.708  1.00  0.00     0.036 A 
HETATM    8  C12 UNL     1      21.441   4.769  -9.022  1.00  0.00     0.030 A 
HETATM    9  C13 UNL     1      22.717   4.260  -8.728  1.00  0.00     0.002 A 
HETATM   10  C14 UNL     1      23.703   5.084  -8.149  1.00  0.00     0.001 A 
HETATM   11  C15 UNL     1      23.425   6.429  -7.853  1.00  0.00     0.010 A 
HETATM   12  C16 UNL     1      22.152   6.918  -8.141  1.00  0.00    -0.018 A 
HETATM   13  C17 UNL     1      21.519   8.254  -7.855  1.00  0.00     0.045 C 
HETATM   14  C38 UNL     1      22.098   9.654  -8.239  1.00  0.00     0.054 C 
HETATM   15  C39 UNL     1      20.894  10.374  -8.985  1.00  0.00     0.182 C 
HETATM   16  C40 UNL     1      20.332  11.638  -8.407  1.00  0.00     0.241 C 
HETATM   17  O4  UNL     1      21.090  12.491  -7.873  1.00  0.00    -0.271 OA
HETATM   18  N6  UNL     1      18.921  11.898  -8.524  1.00  0.00    -0.346 N 
HETATM   19  H13 UNL     1      19.286   6.490  -9.765  1.00  0.00     0.161 HD
HETATM   20  H36 UNL     1      18.535  12.759  -8.079  1.00  0.00     0.163 HD
ENDROOT
BRANCH  13  21
HETATM   21  C18 UNL     1      20.937   8.227  -6.331  1.00  0.00     0.045 A 
HETATM   22  C19 UNL     1      20.720   6.802  -5.677  1.00  0.00     0.202 A 
HETATM   23  N3  UNL     1      19.297   6.691  -5.402  1.00  0.00    -0.314 N 
HETATM   24  N5  UNL     1      21.478   6.796  -4.430  1.00  0.00    -0.367 N 
HETATM   25  C20 UNL     1      18.538   7.815  -5.894  1.00  0.00     0.182 C 
HETATM   26  C30 UNL     1      18.681   5.577  -4.749  1.00  0.00     0.245 C 
HETATM   27  C21 UNL     1      17.418   8.145  -4.954  1.00  0.00     0.241 C 
HETATM   28  C31 UNL     1      19.566   8.926  -6.058  1.00  0.00     0.054 C 
HETATM   29  O2  UNL     1      16.919   9.303  -4.945  1.00  0.00    -0.271 OA
HETATM   30  N4  UNL     1      16.843   7.122  -4.130  1.00  0.00    -0.346 N 
HETATM   31  C22 UNL     1      17.343   5.740  -4.065  1.00  0.00     0.181 C 
HETATM   32  H18 UNL     1      15.958   7.346  -3.620  1.00  0.00     0.163 HD
HETATM   33  O3  UNL     1      19.254   4.453  -4.745  1.00  0.00    -0.271 OA
HETATM   34  C32 UNL     1      22.201   7.998  -4.326  1.00  0.00     0.036 A 
HETATM   35  H29 UNL     1      21.572   5.981  -3.785  1.00  0.00     0.161 HD
HETATM   36  C33 UNL     1      23.040   8.356  -3.270  1.00  0.00     0.030 A 
HETATM   37  C37 UNL     1      21.951   8.841  -5.378  1.00  0.00    -0.018 A 
HETATM   38  C34 UNL     1      23.639   9.623  -3.297  1.00  0.00     0.002 A 
HETATM   39  C35 UNL     1      23.378  10.507  -4.360  1.00  0.00     0.001 A 
HETATM   40  C36 UNL     1      22.516  10.124  -5.402  1.00  0.00     0.010 A 
BRANCH  31  41
HETATM   41  C23 UNL     1      17.409   5.275  -2.594  1.00  0.00     0.073 C 
BRANCH  41  42
HETATM   42  C24 UNL     1      16.070   4.798  -2.077  1.00  0.00    -0.056 A 
HETATM   43  C25 UNL     1      15.217   5.681  -1.393  1.00  0.00     0.007 A 
HETATM   44  C26 UNL     1      14.003   5.224  -0.870  1.00  0.00     0.001 A 
HETATM   45  C27 UNL     1      13.632   3.886  -1.024  1.00  0.00     0.000 A 
HETATM   46  C28 UNL     1      14.471   3.004  -1.711  1.00  0.00     0.001 A 
HETATM   47  C29 UNL     1      15.685   3.456  -2.236  1.00  0.00     0.007 A 
ENDBRANCH  41  42
ENDBRANCH  31  41
ENDBRANCH  13  21
BRANCH   1  48
HETATM   48  C2  UNL     1      17.989  11.661 -10.802  1.00  0.00     0.073 C 
BRANCH  48  49
HETATM   49  C3  UNL     1      16.590  12.052 -11.201  1.00  0.00    -0.056 A 
HETATM   50  C4  UNL     1      15.497  11.258 -10.811  1.00  0.00     0.007 A 
HETATM   51  C5  UNL     1      14.196  11.629 -11.166  1.00  0.00     0.001 A 
HETATM   52  C6  UNL     1      13.977  12.791 -11.910  1.00  0.00     0.000 A 
HETATM   53  C7  UNL     1      15.057  13.591 -12.291  1.00  0.00     0.001 A 
HETATM   54  C8  UNL     1      16.359  13.225 -11.938  1.00  0.00     0.007 A 
ENDBRANCH  48  49
ENDBRANCH   1  48
TORSDOF 5
ENDMDL
MODEL 5
REMARK VINA RESULT:     -12.2      2.768      8.731
REMARK  5 active torsions:
REMARK  status: ('A' for Active; 'I' for Inactive)
REMARK    1  A    between atoms: C1_1  and  C2_2 
REMARK    2  A    between atoms: C2_2  and  C3_3 
REMARK    3  A    between atoms: C17_20  and  C18_21 
REMARK    4  A    between atoms: C22_28  and  C23_29 
REMARK    5  A    between atoms: C23_29  and  C24_30 
ROOT
HETATM    1  C1  UNL     1      17.198   4.583  -2.596  1.00  0.00     0.181 C 
HETATM    2  C9  UNL     1      17.695   6.002  -2.704  1.00  0.00     0.245 C 
HETATM    3  O1  UNL     1      16.902   6.974  -2.596  1.00  0.00    -0.271 OA
HETATM    4  N1  UNL     1      19.084   6.216  -2.941  1.00  0.00    -0.314 N 
HETATM    5  C10 UNL     1      19.857   7.414  -3.030  1.00  0.00     0.202 C 
HETATM    6  N2  UNL     1      19.302   8.727  -3.278  1.00  0.00    -0.367 N 
HETATM    7  C11 UNL     1      20.549   9.377  -3.586  1.00  0.00     0.036 A 
HETATM    8  C12 UNL     1      20.826  10.734  -3.430  1.00  0.00     0.030 A 
HETATM    9  C13 UNL     1      22.143  11.176  -3.646  1.00  0.00     0.002 A 
HETATM   10  C14 UNL     1      23.160  10.263  -3.992  1.00  0.00     0.001 A 
HETATM   11  C15 UNL     1      22.872   8.895  -4.130  1.00  0.00     0.010 A 
HETATM   12  C16 UNL     1      21.561   8.471  -3.922  1.00  0.00    -0.018 A 
HETATM   13  C17 UNL     1      20.921   7.120  -4.092  1.00  0.00     0.045 C 
HETATM   14  C38 UNL     1      21.409   5.778  -3.457  1.00  0.00     0.054 C 
HETATM   15  C39 UNL     1      20.110   5.189  -2.759  1.00  0.00     0.182 C 
HETATM   16  C40 UNL     1      19.574   3.866  -3.218  1.00  0.00     0.241 C 
HETATM   17  O4  UNL     1      20.358   2.934  -3.541  1.00  0.00    -0.271 OA
HETATM   18  N6  UNL     1      18.151   3.648  -3.225  1.00  0.00    -0.346 N 
HETATM   19  H13 UNL     1      18.551   9.169  -2.704  1.00  0.00     0.161 HD
HETATM   20  H36 UNL     1      17.788   2.739  -3.589  1.00  0.00     0.163 HD
ENDROOT
BRANCH  13  21
HETATM   21  C18 UNL     1      20.509   6.943  -5.660  1.00  0.00     0.045 A 
HETATM   22  C19 UNL     1      19.346   7.871  -6.200  1.00  0.00     0.202 A 
HETATM   23  N3  UNL     1      18.274   6.982  -6.615  1.00  0.00    -0.314 N 
HETATM   24  N5  UNL     1      19.885   8.587  -7.352  1.00  0.00    -0.367 N 
HETATM   25  C20 UNL     1      18.540   5.597  -6.314  1.00  0.00     0.182 C 
HETATM   26  C30 UNL     1      17.053   7.413  -7.225  1.00  0.00     0.245 C 
HETATM   27  C21 UNL     1      18.000   4.711  -7.396  1.00  0.00     0.241 C 
HETATM   28  C31 UNL     1      20.051   5.529  -6.143  1.00  0.00     0.054 C 
HETATM   29  O2  UNL     1      18.479   3.556  -7.565  1.00  0.00    -0.271 OA
HETATM   30  N4  UNL     1      16.876   5.131  -8.179  1.00  0.00    -0.346 N 
HETATM   31  C22 UNL     1      16.240   6.452  -8.062  1.00  0.00     0.181 C 
HETATM   32  H18 UNL     1      16.421   4.423  -8.800  1.00  0.00     0.163 HD
HETATM   33  O3  UNL     1      16.652   8.598  -7.064  1.00  0.00    -0.271 OA
HETATM   34  C32 UNL     1      21.250   8.278  -7.488  1.00  0.00     0.036 A 
HETATM   35  H29 UNL     1      19.375   9.309  -7.906  1.00  0.00     0.161 HD
HETATM   36  C33 UNL     1      22.103   8.770  -8.475  1.00  0.00     0.030 A 
HETATM   37  C37 UNL     1      21.667   7.367  -6.551  1.00  0.00    -0.018 A 
HETATM   38  C34 UNL     1      23.427   8.310  -8.501  1.00  0.00     0.002 A 
HETATM   39  C35 UNL     1      23.865   7.362  -7.559  1.00  0.00     0.001 A 
HETATM   40  C36 UNL     1      22.978   6.872  -6.584  1.00  0.00     0.010 A 
BRANCH  31  41
HETATM   41  C23 UNL     1      15.968   7.029  -9.468  1.00  0.00     0.073 C 
BRANCH  41  42
HETATM   42  C24 UNL     1      14.518   6.903  -9.875  1.00  0.00    -0.056 A 
HETATM   43  C25 UNL     1      13.773   5.767  -9.512  1.00  0.00     0.007 A 
HETATM   44  C26 UNL     1      12.447   5.628  -9.935  1.00  0.00     0.001 A 
HETATM   45  C27 UNL     1      11.855   6.618 -10.723  1.00  0.00     0.000 A 
HETATM   46  C28 UNL     1      12.586   7.755 -11.083  1.00  0.00     0.001 A 
HETATM   47  C29 UNL     1      13.911   7.898 -10.661  1.00  0.00     0.007 A 
ENDBRANCH  41  42
ENDBRANCH  31  41
ENDBRANCH  13  21
BRANCH   1  48
HETATM   48  C2  UNL     1      16.984   4.216  -1.120  1.00  0.00     0.073 C 
BRANCH  48  49
HETATM   49  C3  UNL     1      15.521   4.097  -0.786  1.00  0.00    -0.056 A 
HETATM   50  C4  UNL     1      14.753   3.056  -1.337  1.00  0.00     0.007 A 
HETATM   51  C5  UNL     1      13.398   2.934  -1.014  1.00  0.00     0.001 A 
HETATM   52  C6  UNL     1      12.800   3.847  -0.141  1.00  0.00     0.000 A 
HETATM   53  C7  UNL     1      13.559   4.876   0.419  1.00  0.00     0.001 A 
HETATM   54  C8  UNL     1      14.915   5.002   0.101  1.00  0.00     0.007 A 
ENDBRANCH  48  49
ENDBRANCH   1  48
TORSDOF 5
ENDMDL
MODEL 6
REMARK VINA RESULT:     -12.1      3.241      6.292
REMARK  5 active torsions:
REMARK  status: ('A' for Active; 'I' for Inactive)
REMARK    1  A    between atoms: C1_1  and  C2_2 
REMARK    2  A    between atoms: C2_2  and  C3_3 
REMARK    3  A    between atoms: C17_20  and  C18_21 
REMARK    4  A    between atoms: C22_28  and  C23_29 
REMARK    5  A    between atoms: C23_29  and  C24_30 
ROOT
HETATM    1  C1  UNL     1      15.536   7.665  -9.251  1.00  0.00     0.181 C 
HETATM    2  C9  UNL     1      16.880   6.991  -9.148  1.00  0.00     0.245 C 
HETATM    3  O1  UNL     1      16.991   5.745  -9.292  1.00  0.00    -0.271 OA
HETATM    4  N1  UNL     1      18.022   7.798  -8.873  1.00  0.00    -0.314 N 
HETATM    5  C10 UNL     1      19.410   7.475  -8.777  1.00  0.00     0.202 C 
HETATM    6  N2  UNL     1      19.925   6.140  -8.563  1.00  0.00    -0.367 N 
HETATM    7  C11 UNL     1      21.269   6.533  -8.226  1.00  0.00     0.036 A 
HETATM    8  C12 UNL     1      22.416   5.759  -8.392  1.00  0.00     0.030 A 
HETATM    9  C13 UNL     1      23.665   6.352  -8.144  1.00  0.00     0.002 A 
HETATM   10  C14 UNL     1      23.753   7.705  -7.756  1.00  0.00     0.001 A 
HETATM   11  C15 UNL     1      22.591   8.481  -7.608  1.00  0.00     0.010 A 
HETATM   12  C16 UNL     1      21.358   7.877  -7.849  1.00  0.00    -0.018 A 
HETATM   13  C17 UNL     1      19.955   8.396  -7.681  1.00  0.00     0.045 C 
HETATM   14  C38 UNL     1      19.377   9.716  -8.283  1.00  0.00     0.054 C 
HETATM   15  C39 UNL     1      18.043   9.254  -9.011  1.00  0.00     0.182 C 
HETATM   16  C40 UNL     1      16.732   9.815  -8.551  1.00  0.00     0.241 C 
HETATM   17  O4  UNL     1      16.640  11.020  -8.193  1.00  0.00    -0.271 OA
HETATM   18  N6  UNL     1      15.559   8.980  -8.583  1.00  0.00    -0.346 N 
HETATM   19  H13 UNL     1      19.702   5.316  -9.164  1.00  0.00     0.161 HD
HETATM   20  H36 UNL     1      14.662   9.368  -8.218  1.00  0.00     0.163 HD
ENDROOT
BRANCH  13  21
HETATM   21  C18 UNL     1      19.518   8.189  -6.123  1.00  0.00     0.045 A 
HETATM   22  C19 UNL     1      19.668   6.729  -5.529  1.00  0.00     0.202 A 
HETATM   23  N3  UNL     1      18.330   6.299  -5.159  1.00  0.00    -0.314 N 
HETATM   24  N5  UNL     1      20.508   6.846  -4.341  1.00  0.00    -0.367 N 
HETATM   25  C20 UNL     1      17.308   7.245  -5.537  1.00  0.00     0.182 C 
HETATM   26  C30 UNL     1      18.024   5.055  -4.522  1.00  0.00     0.245 C 
HETATM   27  C21 UNL     1      16.224   7.288  -4.503  1.00  0.00     0.241 C 
HETATM   28  C31 UNL     1      18.055   8.560  -5.716  1.00  0.00     0.054 C 
HETATM   29  O2  UNL     1      15.489   8.308  -4.399  1.00  0.00    -0.271 OA
HETATM   30  N4  UNL     1      15.952   6.136  -3.694  1.00  0.00    -0.346 N 
HETATM   31  C22 UNL     1      16.743   4.896  -3.736  1.00  0.00     0.181 C 
HETATM   32  H18 UNL     1      15.084   6.143  -3.111  1.00  0.00     0.163 HD
HETATM   33  O3  UNL     1      18.825   4.085  -4.617  1.00  0.00    -0.271 OA
HETATM   34  C32 UNL     1      20.960   8.173  -4.228  1.00  0.00     0.036 A 
HETATM   35  H29 UNL     1      20.827   6.050  -3.747  1.00  0.00     0.161 HD
HETATM   36  C33 UNL     1      21.784   8.670  -3.217  1.00  0.00     0.030 A 
HETATM   37  C37 UNL     1      20.449   8.977  -5.214  1.00  0.00    -0.018 A 
HETATM   38  C34 UNL     1      22.091  10.037  -3.222  1.00  0.00     0.002 A 
HETATM   39  C35 UNL     1      21.560  10.878  -4.216  1.00  0.00     0.001 A 
HETATM   40  C36 UNL     1      20.720  10.353  -5.212  1.00  0.00     0.010 A 
BRANCH  31  41
HETATM   41  C23 UNL     1      17.026   4.407  -2.300  1.00  0.00     0.073 C 
BRANCH  41  42
HETATM   42  C24 UNL     1      15.773   4.329  -1.457  1.00  0.00    -0.056 A 
HETATM   43  C25 UNL     1      14.757   3.412  -1.774  1.00  0.00     0.007 A 
HETATM   44  C26 UNL     1      13.577   3.379  -1.025  1.00  0.00     0.001 A 
HETATM   45  C27 UNL     1      13.401   4.260   0.045  1.00  0.00     0.000 A 
HETATM   46  C28 UNL     1      14.410   5.171   0.373  1.00  0.00     0.001 A 
HETATM   47  C29 UNL     1      15.591   5.207  -0.373  1.00  0.00     0.007 A 
ENDBRANCH  41  42
ENDBRANCH  31  41
ENDBRANCH  13  21
BRANCH   1  48
HETATM   48  C2  UNL     1      15.144   7.823 -10.728  1.00  0.00     0.073 C 
BRANCH  48  49
HETATM   49  C3  UNL     1      13.649   7.816 -10.907  1.00  0.00    -0.056 A 
HETATM   50  C4  UNL     1      12.882   6.753 -10.399  1.00  0.00     0.007 A 
HETATM   51  C5  UNL     1      11.491   6.754 -10.550  1.00  0.00     0.001 A 
HETATM   52  C6  UNL     1      10.858   7.813 -11.206  1.00  0.00     0.000 A 
HETATM   53  C7  UNL     1      11.612   8.878 -11.703  1.00  0.00     0.001 A 
HETATM   54  C8  UNL     1      13.003   8.882 -11.554  1.00  0.00     0.007 A 
ENDBRANCH  48  49
ENDBRANCH   1  48
TORSDOF 5
ENDMDL
MODEL 7
REMARK VINA RESULT:     -12.0      2.909      8.823
REMARK  5 active torsions:
REMARK  status: ('A' for Active; 'I' for Inactive)
REMARK    1  A    between atoms: C1_1  and  C2_2 
REMARK    2  A    between atoms: C2_2  and  C3_3 
REMARK    3  A    between atoms: C17_20  and  C18_21 
REMARK    4  A    between atoms: C22_28  and  C23_29 
REMARK    5  A    between atoms: C23_29  and  C24_30 
ROOT
HETATM    1  C1  UNL     1      17.086   4.756  -2.940  1.00  0.00     0.181 C 
HETATM    2  C9  UNL     1      17.640   6.155  -2.854  1.00  0.00     0.245 C 
HETATM    3  O1  UNL     1      16.902   7.124  -2.535  1.00  0.00    -0.271 OA
HETATM    4  N1  UNL     1      19.019   6.355  -3.154  1.00  0.00    -0.314 N 
HETATM    5  C10 UNL     1      19.839   7.523  -3.105  1.00  0.00     0.202 C 
HETATM    6  N2  UNL     1      19.331   8.878  -3.099  1.00  0.00    -0.367 N 
HETATM    7  C11 UNL     1      20.584   9.526  -3.388  1.00  0.00     0.036 A 
HETATM    8  C12 UNL     1      20.934  10.829  -3.038  1.00  0.00     0.030 A 
HETATM    9  C13 UNL     1      22.253  11.253  -3.274  1.00  0.00     0.002 A 
HETATM   10  C14 UNL     1      23.201  10.373  -3.834  1.00  0.00     0.001 A 
HETATM   11  C15 UNL     1      22.842   9.057  -4.169  1.00  0.00     0.010 A 
HETATM   12  C16 UNL     1      21.528   8.652  -3.938  1.00  0.00    -0.018 A 
HETATM   13  C17 UNL     1      20.817   7.369  -4.274  1.00  0.00     0.045 C 
HETATM   14  C38 UNL     1      21.282   5.925  -3.899  1.00  0.00     0.054 C 
HETATM   15  C39 UNL     1      20.005   5.277  -3.213  1.00  0.00     0.182 C 
HETATM   16  C40 UNL     1      19.380   4.066  -3.837  1.00  0.00     0.241 C 
HETATM   17  O4  UNL     1      20.097   3.172  -4.362  1.00  0.00    -0.271 OA
HETATM   18  N6  UNL     1      17.951   3.902  -3.777  1.00  0.00    -0.346 N 
HETATM   19  H13 UNL     1      18.640   9.248  -2.409  1.00  0.00     0.161 HD
HETATM   20  H36 UNL     1      17.523   3.078  -4.254  1.00  0.00     0.163 HD
ENDROOT
BRANCH  13  21
HETATM   21  C18 UNL     1      20.295   7.465  -5.817  1.00  0.00     0.045 A 
HETATM   22  C19 UNL     1      19.627   8.830  -6.259  1.00  0.00     0.202 A 
HETATM   23  N3  UNL     1      18.256   8.513  -6.626  1.00  0.00    -0.314 N 
HETATM   24  N5  UNL     1      20.368   9.298  -7.426  1.00  0.00    -0.367 N 
HETATM   25  C20 UNL     1      17.908   7.136  -6.375  1.00  0.00     0.182 C 
HETATM   26  C30 UNL     1      17.316   9.459  -7.147  1.00  0.00     0.245 C 
HETATM   27  C21 UNL     1      16.987   6.624  -7.441  1.00  0.00     0.241 C 
HETATM   28  C31 UNL     1      19.246   6.413  -6.303  1.00  0.00     0.054 C 
HETATM   29  O2  UNL     1      16.907   5.386  -7.668  1.00  0.00    -0.271 OA
HETATM   30  N4  UNL     1      16.121   7.527  -8.141  1.00  0.00    -0.346 N 
HETATM   31  C22 UNL     1      16.128   8.986  -7.952  1.00  0.00     0.181 C 
HETATM   32  H18 UNL     1      15.375   7.117  -8.748  1.00  0.00     0.163 HD
HETATM   33  O3  UNL     1      17.478  10.691  -6.932  1.00  0.00    -0.271 OA
HETATM   34  C32 UNL     1      21.455   8.436  -7.656  1.00  0.00     0.036 A 
HETATM   35  H29 UNL     1      20.197  10.196  -7.929  1.00  0.00     0.161 HD
HETATM   36  C33 UNL     1      22.390   8.559  -8.684  1.00  0.00     0.030 A 
HETATM   37  C37 UNL     1      21.478   7.390  -6.770  1.00  0.00    -0.018 A 
HETATM   38  C34 UNL     1      23.379   7.574  -8.805  1.00  0.00     0.002 A 
HETATM   39  C35 UNL     1      23.406   6.485  -7.916  1.00  0.00     0.001 A 
HETATM   40  C36 UNL     1      22.442   6.379  -6.899  1.00  0.00     0.010 A 
BRANCH  31  41
HETATM   41  C23 UNL     1      16.068   9.692  -9.324  1.00  0.00     0.073 C 
BRANCH  41  42
HETATM   42  C24 UNL     1      14.768   9.434 -10.051  1.00  0.00    -0.056 A 
HETATM   43  C25 UNL     1      14.410   8.128 -10.426  1.00  0.00     0.007 A 
HETATM   44  C26 UNL     1      13.232   7.898 -11.145  1.00  0.00     0.001 A 
HETATM   45  C27 UNL     1      12.405   8.968 -11.496  1.00  0.00     0.000 A 
HETATM   46  C28 UNL     1      12.750  10.269 -11.120  1.00  0.00     0.001 A 
HETATM   47  C29 UNL     1      13.925  10.504 -10.400  1.00  0.00     0.007 A 
ENDBRANCH  41  42
ENDBRANCH  31  41
ENDBRANCH  13  21
BRANCH   1  48
HETATM   48  C2  UNL     1      16.952   4.161  -1.530  1.00  0.00     0.073 C 
BRANCH  48  49
HETATM   49  C3  UNL     1      15.515   4.116  -1.082  1.00  0.00    -0.056 A 
HETATM   50  C4  UNL     1      14.974   5.178  -0.337  1.00  0.00     0.007 A 
HETATM   51  C5  UNL     1      13.635   5.147   0.065  1.00  0.00     0.001 A 
HETATM   52  C6  UNL     1      12.827   4.057  -0.274  1.00  0.00     0.000 A 
HETATM   53  C7  UNL     1      13.354   3.004  -1.024  1.00  0.00     0.001 A 
HETATM   54  C8  UNL     1      14.692   3.031  -1.429  1.00  0.00     0.007 A 
ENDBRANCH  48  49
ENDBRANCH   1  48
TORSDOF 5
ENDMDL
MODEL 8
REMARK VINA RESULT:     -11.7      3.282      6.818
REMARK  5 active torsions:
REMARK  status: ('A' for Active; 'I' for Inactive)
REMARK    1  A    between atoms: C1_1  and  C2_2 
REMARK    2  A    between atoms: C2_2  and  C3_3 
REMARK    3  A    between atoms: C17_20  and  C18_21 
REMARK    4  A    between atoms: C22_28  and  C23_29 
REMARK    5  A    between atoms: C23_29  and  C24_30 
ROOT
HETATM    1  C1  UNL     1      15.603   5.685  -9.306  1.00  0.00     0.181 C 
HETATM    2  C9  UNL     1      17.053   5.412  -9.003  1.00  0.00     0.245 C 
HETATM    3  O1  UNL     1      17.439   4.259  -8.674  1.00  0.00    -0.271 OA
HETATM    4  N1  UNL     1      17.977   6.494  -9.087  1.00  0.00    -0.314 N 
HETATM    5  C10 UNL     1      19.395   6.544  -8.924  1.00  0.00     0.202 C 
HETATM    6  N2  UNL     1      20.175   5.533  -8.243  1.00  0.00    -0.367 N 
HETATM    7  C11 UNL     1      21.382   6.310  -8.122  1.00  0.00     0.036 A 
HETATM    8  C12 UNL     1      22.677   5.803  -8.024  1.00  0.00     0.030 A 
HETATM    9  C13 UNL     1      23.753   6.706  -8.057  1.00  0.00     0.002 A 
HETATM   10  C14 UNL     1      23.524   8.089  -8.206  1.00  0.00     0.001 A 
HETATM   11  C15 UNL     1      22.217   8.588  -8.321  1.00  0.00     0.010 A 
HETATM   12  C16 UNL     1      21.158   7.682  -8.278  1.00  0.00    -0.018 A 
HETATM   13  C17 UNL     1      19.669   7.902  -8.269  1.00  0.00     0.045 C 
HETATM   14  C38 UNL     1      18.851   8.742  -9.302  1.00  0.00     0.054 C 
HETATM   15  C39 UNL     1      17.690   7.760  -9.761  1.00  0.00     0.182 C 
HETATM   16  C40 UNL     1      16.265   8.148  -9.500  1.00  0.00     0.241 C 
HETATM   17  O4  UNL     1      15.896   9.347  -9.615  1.00  0.00    -0.271 OA
HETATM   18  N6  UNL     1      15.305   7.124  -9.179  1.00  0.00    -0.346 N 
HETATM   19  H13 UNL     1      20.168   4.518  -8.485  1.00  0.00     0.161 HD
HETATM   20  H36 UNL     1      14.327   7.412  -8.956  1.00  0.00     0.163 HD
ENDROOT
BRANCH  13  21
HETATM   21  C18 UNL     1      19.206   8.198  -6.733  1.00  0.00     0.045 A 
HETATM   22  C19 UNL     1      19.280   6.983  -5.721  1.00  0.00     0.202 A 
HETATM   23  N3  UNL     1      17.919   6.742  -5.271  1.00  0.00    -0.314 N 
HETATM   24  N5  UNL     1      20.112   7.422  -4.605  1.00  0.00    -0.367 N 
HETATM   25  C20 UNL     1      16.948   7.570  -5.943  1.00  0.00     0.182 C 
HETATM   26  C30 UNL     1      17.548   5.765  -4.294  1.00  0.00     0.245 C 
HETATM   27  C21 UNL     1      15.855   7.971  -4.999  1.00  0.00     0.241 C 
HETATM   28  C31 UNL     1      17.758   8.735  -6.495  1.00  0.00     0.054 C 
HETATM   29  O2  UNL     1      15.168   9.004  -5.227  1.00  0.00    -0.271 OA
HETATM   30  N4  UNL     1      15.521   7.132  -3.885  1.00  0.00    -0.346 N 
HETATM   31  C22 UNL     1      16.253   5.906  -3.529  1.00  0.00     0.181 C 
HETATM   32  H18 UNL     1      14.648   7.352  -3.353  1.00  0.00     0.163 HD
HETATM   33  O3  UNL     1      18.304   4.780  -4.070  1.00  0.00    -0.271 OA
HETATM   34  C32 UNL     1      20.625   8.700  -4.888  1.00  0.00     0.036 A 
HETATM   35  H29 UNL     1      20.387   6.832  -3.789  1.00  0.00     0.161 HD
HETATM   36  C33 UNL     1      21.460   9.447  -4.056  1.00  0.00     0.030 A 
HETATM   37  C37 UNL     1      20.162   9.186  -6.084  1.00  0.00    -0.018 A 
HETATM   38  C34 UNL     1      21.831  10.734  -4.468  1.00  0.00     0.002 A 
HETATM   39  C35 UNL     1      21.351  11.253  -5.683  1.00  0.00     0.001 A 
HETATM   40  C36 UNL     1      20.498  10.485  -6.494  1.00  0.00     0.010 A 
BRANCH  31  41
HETATM   41  C23 UNL     1      16.497   5.866  -2.005  1.00  0.00     0.073 C 
BRANCH  41  42
HETATM   42  C24 UNL     1      15.347   5.239  -1.251  1.00  0.00    -0.056 A 
HETATM   43  C25 UNL     1      14.781   4.030  -1.693  1.00  0.00     0.007 A 
HETATM   44  C26 UNL     1      13.683   3.479  -1.024  1.00  0.00     0.001 A 
HETATM   45  C27 UNL     1      13.141   4.128   0.088  1.00  0.00     0.000 A 
HETATM   46  C28 UNL     1      13.703   5.327   0.539  1.00  0.00     0.001 A 
HETATM   47  C29 UNL     1      14.801   5.881  -0.126  1.00  0.00     0.007 A 
ENDBRANCH  41  42
ENDBRANCH  31  41
ENDBRANCH  13  21
BRANCH   1  48
HETATM   48  C2  UNL     1      15.264   5.192 -10.721  1.00  0.00     0.073 C 
BRANCH  48  49
HETATM   49  C3  UNL     1      14.488   3.903 -10.687  1.00  0.00    -0.056 A 
HETATM   50  C4  UNL     1      13.086   3.925 -10.581  1.00  0.00     0.007 A 
HETATM   51  C5  UNL     1      12.362   2.728 -10.567  1.00  0.00     0.001 A 
HETATM   52  C6  UNL     1      13.030   1.504 -10.660  1.00  0.00     0.000 A 
HETATM   53  C7  UNL     1      14.421   1.474 -10.778  1.00  0.00     0.001 A 
HETATM   54  C8  UNL     1      15.150   2.668 -10.793  1.00  0.00     0.007 A 
ENDBRANCH  48  49
ENDBRANCH   1  48
TORSDOF 5
ENDMDL
MODEL 9
REMARK VINA RESULT:     -11.6      2.850      8.474
REMARK  5 active torsions:
REMARK  status: ('A' for Active; 'I' for Inactive)
REMARK    1  A    between atoms: C1_1  and  C2_2 
REMARK    2  A    between atoms: C2_2  and  C3_3 
REMARK    3  A    between atoms: C17_20  and  C18_21 
REMARK    4  A    between atoms: C22_28  and  C23_29 
REMARK    5  A    between atoms: C23_29  and  C24_30 
ROOT
HETATM    1  C1  UNL     1      16.927   6.657  -1.958  1.00  0.00     0.181 C 
HETATM    2  C9  UNL     1      18.150   7.111  -2.714  1.00  0.00     0.245 C 
HETATM    3  O1  UNL     1      18.649   8.249  -2.512  1.00  0.00    -0.271 OA
HETATM    4  N1  UNL     1      18.721   6.223  -3.672  1.00  0.00    -0.314 N 
HETATM    5  C10 UNL     1      19.889   6.331  -4.487  1.00  0.00     0.202 C 
HETATM    6  N2  UNL     1      20.557   7.578  -4.794  1.00  0.00    -0.367 N 
HETATM    7  C11 UNL     1      21.372   7.068  -5.866  1.00  0.00     0.036 A 
HETATM    8  C12 UNL     1      22.599   7.583  -6.279  1.00  0.00     0.030 A 
HETATM    9  C13 UNL     1      23.329   6.875  -7.250  1.00  0.00     0.002 A 
HETATM   10  C14 UNL     1      22.837   5.663  -7.775  1.00  0.00     0.001 A 
HETATM   11  C15 UNL     1      21.607   5.144  -7.339  1.00  0.00     0.010 A 
HETATM   12  C16 UNL     1      20.889   5.861  -6.383  1.00  0.00    -0.018 A 
HETATM   13  C17 UNL     1      19.521   5.632  -5.799  1.00  0.00     0.045 C 
HETATM   14  C38 UNL     1      19.005   4.315  -5.135  1.00  0.00     0.054 C 
HETATM   15  C39 UNL     1      18.418   4.793  -3.739  1.00  0.00     0.182 C 
HETATM   16  C40 UNL     1      16.962   4.581  -3.451  1.00  0.00     0.241 C 
HETATM   17  O4  UNL     1      16.379   3.531  -3.835  1.00  0.00    -0.271 OA
HETATM   18  N6  UNL     1      16.249   5.560  -2.674  1.00  0.00    -0.346 N 
HETATM   19  H13 UNL     1      20.906   8.253  -4.079  1.00  0.00     0.161 HD
HETATM   20  H36 UNL     1      15.226   5.423  -2.518  1.00  0.00     0.163 HD
ENDROOT
BRANCH  13  21
HETATM   21  C18 UNL     1      18.419   6.282  -6.811  1.00  0.00     0.045 A 
HETATM   22  C19 UNL     1      18.946   7.370  -7.834  1.00  0.00     0.202 A 
HETATM   23  N3  UNL     1      18.246   8.603  -7.516  1.00  0.00    -0.314 N 
HETATM   24  N5  UNL     1      18.571   6.905  -9.166  1.00  0.00    -0.367 N 
HETATM   25  C20 UNL     1      17.411   8.492  -6.344  1.00  0.00     0.182 C 
HETATM   26  C30 UNL     1      18.383   9.826  -8.246  1.00  0.00     0.245 C 
HETATM   27  C21 UNL     1      16.158   9.297  -6.514  1.00  0.00     0.241 C 
HETATM   28  C31 UNL     1      17.178   6.996  -6.184  1.00  0.00     0.054 C 
HETATM   29  O2  UNL     1      15.128   9.013  -5.844  1.00  0.00    -0.271 OA
HETATM   30  N4  UNL     1      16.152  10.452  -7.364  1.00  0.00    -0.346 N 
HETATM   31  C22 UNL     1      17.297  10.875  -8.185  1.00  0.00     0.181 C 
HETATM   32  H18 UNL     1      15.320  11.083  -7.323  1.00  0.00     0.163 HD
HETATM   33  O3  UNL     1      19.414  10.031  -8.944  1.00  0.00    -0.271 OA
HETATM   34  C32 UNL     1      17.989   5.629  -9.060  1.00  0.00     0.036 A 
HETATM   35  H29 UNL     1      18.813   7.382 -10.061  1.00  0.00     0.161 HD
HETATM   36  C33 UNL     1      17.504   4.863 -10.121  1.00  0.00     0.030 A 
HETATM   37  C37 UNL     1      17.890   5.215  -7.757  1.00  0.00    -0.018 A 
HETATM   38  C34 UNL     1      16.897   3.634  -9.832  1.00  0.00     0.002 A 
HETATM   39  C35 UNL     1      16.772   3.204  -8.499  1.00  0.00     0.001 A 
HETATM   40  C36 UNL     1      17.256   4.003  -7.449  1.00  0.00     0.010 A 
BRANCH  31  41
HETATM   41  C23 UNL     1      16.813  11.259  -9.600  1.00  0.00     0.073 C 
BRANCH  41  42
HETATM   42  C24 UNL     1      15.699  10.364 -10.094  1.00  0.00    -0.056 A 
HETATM   43  C25 UNL     1      15.942   9.004 -10.354  1.00  0.00     0.007 A 
HETATM   44  C26 UNL     1      14.924   8.190 -10.862  1.00  0.00     0.001 A 
HETATM   45  C27 UNL     1      13.658   8.726 -11.114  1.00  0.00     0.000 A 
HETATM   46  C28 UNL     1      13.406  10.076 -10.850  1.00  0.00     0.001 A 
HETATM   47  C29 UNL     1      14.420  10.893 -10.343  1.00  0.00     0.007 A 
ENDBRANCH  41  42
ENDBRANCH  31  41
ENDBRANCH  13  21
BRANCH   1  48
HETATM   48  C2  UNL     1      17.326   6.207  -0.545  1.00  0.00     0.073 C 
BRANCH  48  49
HETATM   49  C3  UNL     1      16.221   6.459   0.448  1.00  0.00    -0.056 A 
HETATM   50  C4  UNL     1      15.925   7.770   0.857  1.00  0.00     0.007 A 
HETATM   51  C5  UNL     1      14.889   8.007   1.766  1.00  0.00     0.001 A 
HETATM   52  C6  UNL     1      14.141   6.939   2.270  1.00  0.00     0.000 A 
HETATM   53  C7  UNL     1      14.421   5.635   1.859  1.00  0.00     0.001 A 
HETATM   54  C8  UNL     1      15.456   5.393   0.950  1.00  0.00     0.007 A 
ENDBRANCH  48  49
ENDBRANCH   1  48
TORSDOF 5
ENDMDL
MODEL 10
REMARK VINA RESULT:     -11.6      3.285      7.367
REMARK  5 active torsions:
REMARK  status: ('A' for Active; 'I' for Inactive)
REMARK    1  A    between atoms: C1_1  and  C2_2 
REMARK    2  A    between atoms: C2_2  and  C3_3 
REMARK    3  A    between atoms: C17_20  and  C18_21 
REMARK    4  A    between atoms: C22_28  and  C23_29 
REMARK    5  A    between atoms: C23_29  and  C24_30 
ROOT
HETATM    1  C1  UNL     1      16.144   8.558  -9.517  1.00  0.00     0.181 C 
HETATM    2  C9  UNL     1      15.889   8.464  -8.034  1.00  0.00     0.245 C 
HETATM    3  O1  UNL     1      15.543   9.477  -7.373  1.00  0.00    -0.271 OA
HETATM    4  N1  UNL     1      16.058   7.200  -7.398  1.00  0.00    -0.314 N 
HETATM    5  C10 UNL     1      15.839   6.780  -6.051  1.00  0.00     0.202 C 
HETATM    6  N2  UNL     1      15.751   7.678  -4.920  1.00  0.00    -0.367 N 
HETATM    7  C11 UNL     1      15.880   6.671  -3.899  1.00  0.00     0.036 A 
HETATM    8  C12 UNL     1      15.386   6.754  -2.598  1.00  0.00     0.030 A 
HETATM    9  C13 UNL     1      15.477   5.619  -1.775  1.00  0.00     0.002 A 
HETATM   10  C14 UNL     1      16.038   4.421  -2.263  1.00  0.00     0.001 A 
HETATM   11  C15 UNL     1      16.517   4.343  -3.581  1.00  0.00     0.010 A 
HETATM   12  C16 UNL     1      16.429   5.479  -4.384  1.00  0.00    -0.018 A 
HETATM   13  C17 UNL     1      16.936   5.747  -5.775  1.00  0.00     0.045 C 
HETATM   14  C38 UNL     1      16.657   4.880  -7.046  1.00  0.00     0.054 C 
HETATM   15  C39 UNL     1      16.136   5.929  -8.118  1.00  0.00     0.182 C 
HETATM   16  C40 UNL     1      16.915   6.123  -9.384  1.00  0.00     0.241 C 
HETATM   17  O4  UNL     1      17.460   5.142  -9.959  1.00  0.00    -0.271 OA
HETATM   18  N6  UNL     1      16.984   7.434  -9.974  1.00  0.00    -0.346 N 
HETATM   19  H13 UNL     1      15.087   8.481  -4.853  1.00  0.00     0.161 HD
HETATM   20  H36 UNL     1      17.566   7.565 -10.830  1.00  0.00     0.163 HD
ENDROOT
BRANCH  13  21
HETATM   21  C18 UNL     1      18.500   6.197  -5.670  1.00  0.00     0.045 A 
HETATM   22  C19 UNL     1      18.784   7.677  -5.184  1.00  0.00     0.202 A 
HETATM   23  N3  UNL     1      19.465   8.344  -6.282  1.00  0.00    -0.314 N 
HETATM   24  N5  UNL     1      19.669   7.573  -4.029  1.00  0.00    -0.367 N 
HETATM   25  C20 UNL     1      19.564   7.525  -7.466  1.00  0.00     0.182 C 
HETATM   26  C30 UNL     1      19.959   9.686  -6.234  1.00  0.00     0.245 C 
HETATM   27  C21 UNL     1      20.868   7.767  -8.164  1.00  0.00     0.241 C 
HETATM   28  C31 UNL     1      19.379   6.101  -6.960  1.00  0.00     0.054 C 
HETATM   29  O2  UNL     1      21.347   6.889  -8.933  1.00  0.00    -0.271 OA
HETATM   30  N4  UNL     1      21.529   9.034  -8.040  1.00  0.00    -0.346 N 
HETATM   31  C22 UNL     1      21.057  10.126  -7.175  1.00  0.00     0.181 C 
HETATM   32  H18 UNL     1      22.338   9.226  -8.673  1.00  0.00     0.163 HD
HETATM   33  O3  UNL     1      19.478  10.506  -5.406  1.00  0.00    -0.271 OA
HETATM   34  C32 UNL     1      19.850   6.216  -3.709  1.00  0.00     0.036 A 
HETATM   35  H29 UNL     1      20.007   8.376  -3.454  1.00  0.00     0.161 HD
HETATM   36  C33 UNL     1      20.633   5.721  -2.665  1.00  0.00     0.030 A 
HETATM   37  C37 UNL     1      19.201   5.389  -4.590  1.00  0.00    -0.018 A 
HETATM   38  C34 UNL     1      20.753   4.332  -2.524  1.00  0.00     0.002 A 
HETATM   39  C35 UNL     1      20.109   3.471  -3.431  1.00  0.00     0.001 A 
HETATM   40  C36 UNL     1      19.339   3.997  -4.482  1.00  0.00     0.010 A 
BRANCH  31  41
HETATM   41  C23 UNL     1      22.247  10.732  -6.400  1.00  0.00     0.073 C 
BRANCH  41  42
HETATM   42  C24 UNL     1      22.612   9.922  -5.176  1.00  0.00    -0.056 A 
HETATM   43  C25 UNL     1      23.090   8.607  -5.310  1.00  0.00     0.007 A 
HETATM   44  C26 UNL     1      23.377   7.842  -4.174  1.00  0.00     0.001 A 
HETATM   45  C27 UNL     1      23.190   8.382  -2.899  1.00  0.00     0.000 A 
HETATM   46  C28 UNL     1      22.722   9.692  -2.758  1.00  0.00     0.001 A 
HETATM   47  C29 UNL     1      22.435  10.461  -3.889  1.00  0.00     0.007 A 
ENDBRANCH  41  42
ENDBRANCH  31  41
ENDBRANCH  13  21
BRANCH   1  48
HETATM   48  C2  UNL     1      14.809   8.571 -10.276  1.00  0.00     0.073 C 
BRANCH  48  49
HETATM   49  C3  UNL     1      14.536   9.918 -10.892  1.00  0.00    -0.056 A 
HETATM   50  C4  UNL     1      15.518  10.923 -10.855  1.00  0.00     0.007 A 
HETATM   51  C5  UNL     1      15.273  12.169 -11.442  1.00  0.00     0.001 A 
HETATM   52  C6  UNL     1      14.049  12.419 -12.070  1.00  0.00     0.000 A 
HETATM   53  C7  UNL     1      13.074  11.421 -12.122  1.00  0.00     0.001 A 
HETATM   54  C8  UNL     1      13.315  10.174 -11.537  1.00  0.00     0.007 A 
ENDBRANCH  48  49
ENDBRANCH   1  48
TORSDOF 5
ENDMDL
MODEL 11
REMARK VINA RESULT:     -11.5      2.678      8.855
REMARK  5 active torsions:
REMARK  status: ('A' for Active; 'I' for Inactive)
REMARK    1  A    between atoms: C1_1  and  C2_2 
REMARK    2  A    between atoms: C2_2  and  C3_3 
REMARK    3  A    between atoms: C17_20  and  C18_21 
REMARK    4  A    between atoms: C22_28  and  C23_29 
REMARK    5  A    between atoms: C23_29  and  C24_30 
ROOT
HETATM    1  C1  UNL     1      17.112   6.717  -2.207  1.00  0.00     0.181 C 
HETATM    2  C9  UNL     1      18.337   7.172  -2.958  1.00  0.00     0.245 C 
HETATM    3  O1  UNL     1      18.835   8.310  -2.753  1.00  0.00    -0.271 OA
HETATM    4  N1  UNL     1      18.913   6.285  -3.914  1.00  0.00    -0.314 N 
HETATM    5  C10 UNL     1      20.084   6.396  -4.725  1.00  0.00     0.202 C 
HETATM    6  N2  UNL     1      20.752   7.643  -5.028  1.00  0.00    -0.367 N 
HETATM    7  C11 UNL     1      21.572   7.135  -6.097  1.00  0.00     0.036 A 
HETATM    8  C12 UNL     1      22.800   7.651  -6.505  1.00  0.00     0.030 A 
HETATM    9  C13 UNL     1      23.534   6.945  -7.473  1.00  0.00     0.002 A 
HETATM   10  C14 UNL     1      23.045   5.733  -8.002  1.00  0.00     0.001 A 
HETATM   11  C15 UNL     1      21.814   5.212  -7.572  1.00  0.00     0.010 A 
HETATM   12  C16 UNL     1      21.092   5.928  -6.618  1.00  0.00    -0.018 A 
HETATM   13  C17 UNL     1      19.721   5.698  -6.039  1.00  0.00     0.045 C 
HETATM   14  C38 UNL     1      19.204   4.379  -5.379  1.00  0.00     0.054 C 
HETATM   15  C39 UNL     1      18.611   4.856  -3.985  1.00  0.00     0.182 C 
HETATM   16  C40 UNL     1      17.154   4.642  -3.703  1.00  0.00     0.241 C 
HETATM   17  O4  UNL     1      16.573   3.593  -4.090  1.00  0.00    -0.271 OA
HETATM   18  N6  UNL     1      16.437   5.620  -2.927  1.00  0.00    -0.346 N 
HETATM   19  H13 UNL     1      21.098   8.318  -4.311  1.00  0.00     0.161 HD
HETATM   20  H36 UNL     1      15.414   5.482  -2.775  1.00  0.00     0.163 HD
ENDROOT
BRANCH  13  21
HETATM   21  C18 UNL     1      18.623   6.348  -7.055  1.00  0.00     0.045 A 
HETATM   22  C19 UNL     1      19.167   7.379  -8.126  1.00  0.00     0.202 A 
HETATM   23  N3  UNL     1      18.515   8.647  -7.841  1.00  0.00    -0.314 N 
HETATM   24  N5  UNL     1      18.752   6.880  -9.433  1.00  0.00    -0.367 N 
HETATM   25  C20 UNL     1      17.699   8.607  -6.652  1.00  0.00     0.182 C 
HETATM   26  C30 UNL     1      18.679   9.837  -8.618  1.00  0.00     0.245 C 
HETATM   27  C21 UNL     1      16.471   9.448  -6.829  1.00  0.00     0.241 C 
HETATM   28  C31 UNL     1      17.419   7.126  -6.432  1.00  0.00     0.054 C 
HETATM   29  O2  UNL     1      15.444   9.223  -6.131  1.00  0.00    -0.271 OA
HETATM   30  N4  UNL     1      16.487  10.571  -7.720  1.00  0.00    -0.346 N 
HETATM   31  C22 UNL     1      17.630  10.924  -8.576  1.00  0.00     0.181 C 
HETATM   32  H18 UNL     1      15.678  11.231  -7.687  1.00  0.00     0.163 HD
HETATM   33  O3  UNL     1      19.703   9.982  -9.340  1.00  0.00    -0.271 OA
HETATM   34  C32 UNL     1      18.130   5.630  -9.271  1.00  0.00     0.036 A 
HETATM   35  H29 UNL     1      18.993   7.317 -10.350  1.00  0.00     0.161 HD
HETATM   36  C33 UNL     1      17.599   4.844 -10.294  1.00  0.00     0.030 A 
HETATM   37  C37 UNL     1      18.041   5.266  -7.951  1.00  0.00    -0.018 A 
HETATM   38  C34 UNL     1      16.957   3.647  -9.950  1.00  0.00     0.002 A 
HETATM   39  C35 UNL     1      16.842   3.269  -8.600  1.00  0.00     0.001 A 
HETATM   40  C36 UNL     1      17.372   4.088  -7.588  1.00  0.00     0.010 A 
BRANCH  31  41
HETATM   41  C23 UNL     1      17.133  11.274  -9.995  1.00  0.00     0.073 C 
BRANCH  41  42
HETATM   42  C24 UNL     1      17.521  12.674 -10.416  1.00  0.00    -0.056 A 
HETATM   43  C25 UNL     1      17.042  13.212 -11.622  1.00  0.00     0.007 A 
HETATM   44  C26 UNL     1      17.444  14.487 -12.035  1.00  0.00     0.001 A 
HETATM   45  C27 UNL     1      18.327  15.232 -11.250  1.00  0.00     0.000 A 
HETATM   46  C28 UNL     1      18.802  14.707 -10.044  1.00  0.00     0.001 A 
HETATM   47  C29 UNL     1      18.402  13.434  -9.627  1.00  0.00     0.007 A 
ENDBRANCH  41  42
ENDBRANCH  31  41
ENDBRANCH  13  21
BRANCH   1  48
HETATM   48  C2  UNL     1      17.505   6.265  -0.793  1.00  0.00     0.073 C 
BRANCH  48  49
HETATM   49  C3  UNL     1      16.371   6.446   0.181  1.00  0.00    -0.056 A 
HETATM   50  C4  UNL     1      15.620   5.336   0.604  1.00  0.00     0.007 A 
HETATM   51  C5  UNL     1      14.577   5.499   1.521  1.00  0.00     0.001 A 
HETATM   52  C6  UNL     1      14.277   6.769   2.023  1.00  0.00     0.000 A 
HETATM   53  C7  UNL     1      15.027   7.875   1.617  1.00  0.00     0.001 A 
HETATM   54  C8  UNL     1      16.071   7.717   0.700  1.00  0.00     0.007 A 
ENDBRANCH  48  49
ENDBRANCH   1  48
TORSDOF 5
ENDMDL
MODEL 12
REMARK VINA RESULT:     -11.3      2.686      9.239
REMARK  5 active torsions:
REMARK  status: ('A' for Active; 'I' for Inactive)
REMARK    1  A    between atoms: C1_1  and  C2_2 
REMARK    2  A    between atoms: C2_2  and  C3_3 
REMARK    3  A    between atoms: C17_20  and  C18_21 
REMARK    4  A    between atoms: C22_28  and  C23_29 
REMARK    5  A    between atoms: C23_29  and  C24_30 
ROOT
HETATM    1  C1  UNL     1      16.988   4.798  -3.051  1.00  0.00     0.181 C 
HETATM    2  C9  UNL     1      17.629   6.160  -2.973  1.00  0.00     0.245 C 
HETATM    3  O1  UNL     1      16.970   7.164  -2.596  1.00  0.00    -0.271 OA
HETATM    4  N1  UNL     1      18.999   6.285  -3.348  1.00  0.00    -0.314 N 
HETATM    5  C10 UNL     1      19.889   7.402  -3.326  1.00  0.00     0.202 C 
HETATM    6  N2  UNL     1      19.464   8.784  -3.268  1.00  0.00    -0.367 N 
HETATM    7  C11 UNL     1      20.736   9.362  -3.618  1.00  0.00     0.036 A 
HETATM    8  C12 UNL     1      21.182  10.634  -3.266  1.00  0.00     0.030 A 
HETATM    9  C13 UNL     1      22.509  10.985  -3.571  1.00  0.00     0.002 A 
HETATM   10  C14 UNL     1      23.369  10.062  -4.199  1.00  0.00     0.001 A 
HETATM   11  C15 UNL     1      22.914   8.776  -4.534  1.00  0.00     0.010 A 
HETATM   12  C16 UNL     1      21.593   8.445  -4.235  1.00  0.00    -0.018 A 
HETATM   13  C17 UNL     1      20.788   7.213  -4.552  1.00  0.00     0.045 C 
HETATM   14  C38 UNL     1      21.187   5.737  -4.229  1.00  0.00     0.054 C 
HETATM   15  C39 UNL     1      19.914   5.151  -3.481  1.00  0.00     0.182 C 
HETATM   16  C40 UNL     1      19.182   3.993  -4.089  1.00  0.00     0.241 C 
HETATM   17  O4  UNL     1      19.814   3.069  -4.669  1.00  0.00    -0.271 OA
HETATM   18  N6  UNL     1      17.752   3.913  -3.950  1.00  0.00    -0.346 N 
HETATM   19  H13 UNL     1      18.837   9.179  -2.534  1.00  0.00     0.161 HD
HETATM   20  H36 UNL     1      17.249   3.125  -4.416  1.00  0.00     0.163 HD
ENDROOT
BRANCH  13  21
HETATM   21  C18 UNL     1      20.188   7.371  -6.061  1.00  0.00     0.045 A 
HETATM   22  C19 UNL     1      20.523   8.717  -6.823  1.00  0.00     0.202 A 
HETATM   23  N3  UNL     1      19.250   9.371  -7.077  1.00  0.00    -0.314 N 
HETATM   24  N5  UNL     1      21.156   8.336  -8.082  1.00  0.00    -0.367 N 
HETATM   25  C20 UNL     1      18.132   8.681  -6.481  1.00  0.00     0.182 C 
HETATM   26  C30 UNL     1      19.096  10.593  -7.805  1.00  0.00     0.245 C 
HETATM   27  C21 UNL     1      16.927   8.767  -7.368  1.00  0.00     0.241 C 
HETATM   28  C31 UNL     1      18.640   7.264  -6.249  1.00  0.00     0.054 C 
HETATM   29  O2  UNL     1      16.008   7.908  -7.273  1.00  0.00    -0.271 OA
HETATM   30  N4  UNL     1      16.766   9.878  -8.260  1.00  0.00    -0.346 N 
HETATM   31  C22 UNL     1      17.771  10.935  -8.447  1.00  0.00     0.181 C 
HETATM   32  H18 UNL     1      15.840   9.994  -8.732  1.00  0.00     0.163 HD
HETATM   33  O3  UNL     1      20.068  11.389  -7.912  1.00  0.00    -0.271 OA
HETATM   34  C32 UNL     1      21.334   6.941  -8.103  1.00  0.00     0.036 A 
HETATM   35  H29 UNL     1      21.533   9.000  -8.793  1.00  0.00     0.161 HD
HETATM   36  C33 UNL     1      21.905   6.208  -9.144  1.00  0.00     0.030 A 
HETATM   37  C37 UNL     1      20.822   6.340  -6.982  1.00  0.00    -0.018 A 
HETATM   38  C34 UNL     1      21.950   4.812  -9.027  1.00  0.00     0.002 A 
HETATM   39  C35 UNL     1      21.413   4.179  -7.891  1.00  0.00     0.001 A 
HETATM   40  C36 UNL     1      20.830   4.943  -6.865  1.00  0.00     0.010 A 
BRANCH  31  41
HETATM   41  C23 UNL     1      17.941  11.237  -9.951  1.00  0.00     0.073 C 
BRANCH  41  42
HETATM   42  C24 UNL     1      17.864  12.715 -10.258  1.00  0.00    -0.056 A 
HETATM   43  C25 UNL     1      18.903  13.578  -9.866  1.00  0.00     0.007 A 
HETATM   44  C26 UNL     1      18.805  14.953 -10.104  1.00  0.00     0.001 A 
HETATM   45  C27 UNL     1      17.673  15.477 -10.732  1.00  0.00     0.000 A 
HETATM   46  C28 UNL     1      16.638  14.625 -11.132  1.00  0.00     0.001 A 
HETATM   47  C29 UNL     1      16.732  13.250 -10.897  1.00  0.00     0.007 A 
ENDBRANCH  41  42
ENDBRANCH  31  41
ENDBRANCH  13  21
BRANCH   1  48
HETATM   48  C2  UNL     1      16.898   4.184  -1.646  1.00  0.00     0.073 C 
BRANCH  48  49
HETATM   49  C3  UNL     1      15.480   4.168  -1.138  1.00  0.00    -0.056 A 
HETATM   50  C4  UNL     1      14.622   3.107  -1.475  1.00  0.00     0.007 A 
HETATM   51  C5  UNL     1      13.310   3.081  -0.991  1.00  0.00     0.001 A 
HETATM   52  C6  UNL     1      12.847   4.112  -0.168  1.00  0.00     0.000 A 
HETATM   53  C7  UNL     1      13.697   5.163   0.180  1.00  0.00     0.001 A 
HETATM   54  C8  UNL     1      15.010   5.193  -0.300  1.00  0.00     0.007 A 
ENDBRANCH  48  49
ENDBRANCH   1  48
TORSDOF 5
ENDMDL
MODEL 13
REMARK VINA RESULT:     -11.2      3.857      8.651
REMARK  5 active torsions:
REMARK  status: ('A' for Active; 'I' for Inactive)
REMARK    1  A    between atoms: C1_1  and  C2_2 
REMARK    2  A    between atoms: C2_2  and  C3_3 
REMARK    3  A    between atoms: C17_20  and  C18_21 
REMARK    4  A    between atoms: C22_28  and  C23_29 
REMARK    5  A    between atoms: C23_29  and  C24_30 
ROOT
HETATM    1  C1  UNL     1      16.718   9.675  -8.811  1.00  0.00     0.181 C 
HETATM    2  C9  UNL     1      18.128   9.874  -8.316  1.00  0.00     0.245 C 
HETATM    3  O1  UNL     1      19.084  10.005  -9.124  1.00  0.00    -0.271 OA
HETATM    4  N1  UNL     1      18.353   9.901  -6.909  1.00  0.00    -0.314 N 
HETATM    5  C10 UNL     1      19.536  10.129  -6.142  1.00  0.00     0.202 C 
HETATM    6  N2  UNL     1      20.881  10.005  -6.661  1.00  0.00    -0.367 N 
HETATM    7  C11 UNL     1      21.551  10.008  -5.386  1.00  0.00     0.036 A 
HETATM    8  C12 UNL     1      22.861  10.419  -5.149  1.00  0.00     0.030 A 
HETATM    9  C13 UNL     1      23.309  10.491  -3.819  1.00  0.00     0.002 A 
HETATM   10  C14 UNL     1      22.444  10.174  -2.752  1.00  0.00     0.001 A 
HETATM   11  C15 UNL     1      21.120   9.777  -3.001  1.00  0.00     0.010 A 
HETATM   12  C16 UNL     1      20.691   9.700  -4.325  1.00  0.00    -0.018 A 
HETATM   13  C17 UNL     1      19.394   9.219  -4.917  1.00  0.00     0.045 C 
HETATM   14  C38 UNL     1      17.961   9.704  -4.527  1.00  0.00     0.054 C 
HETATM   15  C39 UNL     1      17.292  10.082  -5.917  1.00  0.00     0.182 C 
HETATM   16  C40 UNL     1      16.067   9.340  -6.360  1.00  0.00     0.241 C 
HETATM   17  O4  UNL     1      15.184   9.004  -5.526  1.00  0.00    -0.271 OA
HETATM   18  N6  UNL     1      15.878   9.068  -7.761  1.00  0.00    -0.346 N 
HETATM   19  H13 UNL     1      21.241  10.513  -7.499  1.00  0.00     0.161 HD
HETATM   20  H36 UNL     1      15.043   8.512  -8.052  1.00  0.00     0.163 HD
ENDROOT
BRANCH  13  21
HETATM   21  C18 UNL     1      19.473   7.597  -5.068  1.00  0.00     0.045 A 
HETATM   22  C19 UNL     1      20.881   6.986  -5.457  1.00  0.00     0.202 A 
HETATM   23  N3  UNL     1      20.699   6.325  -6.739  1.00  0.00    -0.314 N 
HETATM   24  N5  UNL     1      21.209   6.007  -4.426  1.00  0.00    -0.367 N 
HETATM   25  C20 UNL     1      19.382   6.521  -7.293  1.00  0.00     0.182 C 
HETATM   26  C30 UNL     1      21.716   5.586  -7.423  1.00  0.00     0.245 C 
HETATM   27  C21 UNL     1      18.924   5.285  -8.008  1.00  0.00     0.241 C 
HETATM   28  C31 UNL     1      18.521   6.909  -6.099  1.00  0.00     0.054 C 
HETATM   29  O2  UNL     1      17.692   5.073  -8.180  1.00  0.00    -0.271 OA
HETATM   30  N4  UNL     1      19.882   4.388  -8.586  1.00  0.00    -0.346 N 
HETATM   31  C22 UNL     1      21.339   4.543  -8.450  1.00  0.00     0.181 C 
HETATM   32  H18 UNL     1      19.527   3.638  -9.221  1.00  0.00     0.163 HD
HETATM   33  O3  UNL     1      22.932   5.804  -7.170  1.00  0.00    -0.271 OA
HETATM   34  C32 UNL     1      20.224   6.047  -3.424  1.00  0.00     0.036 A 
HETATM   35  H29 UNL     1      22.096   5.459  -4.375  1.00  0.00     0.161 HD
HETATM   36  C33 UNL     1      20.196   5.254  -2.276  1.00  0.00     0.030 A 
HETATM   37  C37 UNL     1      19.225   6.938  -3.720  1.00  0.00    -0.018 A 
HETATM   38  C34 UNL     1      19.104   5.381  -1.406  1.00  0.00     0.002 A 
HETATM   39  C35 UNL     1      18.062   6.277  -1.706  1.00  0.00     0.001 A 
HETATM   40  C36 UNL     1      18.110   7.052  -2.877  1.00  0.00     0.010 A 
BRANCH  31  41
HETATM   41  C23 UNL     1      21.981   3.178  -8.121  1.00  0.00     0.073 C 
BRANCH  41  42
HETATM   42  C24 UNL     1      23.197   2.890  -8.972  1.00  0.00    -0.056 A 
HETATM   43  C25 UNL     1      23.049   2.448 -10.297  1.00  0.00     0.007 A 
HETATM   44  C26 UNL     1      24.174   2.132 -11.066  1.00  0.00     0.001 A 
HETATM   45  C27 UNL     1      25.454   2.254 -10.518  1.00  0.00     0.000 A 
HETATM   46  C28 UNL     1      25.611   2.701  -9.202  1.00  0.00     0.001 A 
HETATM   47  C29 UNL     1      24.489   3.018  -8.431  1.00  0.00     0.007 A 
ENDBRANCH  41  42
ENDBRANCH  31  41
ENDBRANCH  13  21
BRANCH   1  48
HETATM   48  C2  UNL     1      16.127  11.020  -9.258  1.00  0.00     0.073 C 
BRANCH  48  49
HETATM   49  C3  UNL     1      15.277  10.869 -10.492  1.00  0.00    -0.056 A 
HETATM   50  C4  UNL     1      15.882  10.683 -11.748  1.00  0.00     0.007 A 
HETATM   51  C5  UNL     1      15.093  10.525 -12.892  1.00  0.00     0.001 A 
HETATM   52  C6  UNL     1      13.699  10.549 -12.792  1.00  0.00     0.000 A 
HETATM   53  C7  UNL     1      13.092  10.721 -11.546  1.00  0.00     0.001 A 
HETATM   54  C8  UNL     1      13.875  10.879 -10.399  1.00  0.00     0.007 A 
ENDBRANCH  48  49
ENDBRANCH   1  48
TORSDOF 5
ENDMDL
MODEL 14
REMARK VINA RESULT:     -11.2      2.365      8.594
REMARK  5 active torsions:
REMARK  status: ('A' for Active; 'I' for Inactive)
REMARK    1  A    between atoms: C1_1  and  C2_2 
REMARK    2  A    between atoms: C2_2  and  C3_3 
REMARK    3  A    between atoms: C17_20  and  C18_21 
REMARK    4  A    between atoms: C22_28  and  C23_29 
REMARK    5  A    between atoms: C23_29  and  C24_30 
ROOT
HETATM    1  C1  UNL     1      18.421   4.713  -1.404  1.00  0.00     0.181 C 
HETATM    2  C9  UNL     1      18.778   4.028  -2.698  1.00  0.00     0.245 C 
HETATM    3  O1  UNL     1      19.796   3.292  -2.780  1.00  0.00    -0.271 OA
HETATM    4  N1  UNL     1      17.939   4.242  -3.831  1.00  0.00    -0.314 N 
HETATM    5  C10 UNL     1      17.973   3.700  -5.151  1.00  0.00     0.202 C 
HETATM    6  N2  UNL     1      19.135   3.078  -5.749  1.00  0.00    -0.367 N 
HETATM    7  C11 UNL     1      18.646   3.081  -7.103  1.00  0.00     0.036 A 
HETATM    8  C12 UNL     1      19.020   2.196  -8.113  1.00  0.00     0.030 A 
HETATM    9  C13 UNL     1      18.337   2.253  -9.339  1.00  0.00     0.002 A 
HETATM   10  C14 UNL     1      17.284   3.171  -9.533  1.00  0.00     0.001 A 
HETATM   11  C15 UNL     1      16.904   4.047  -8.503  1.00  0.00     0.010 A 
HETATM   12  C16 UNL     1      17.596   3.986  -7.295  1.00  0.00    -0.018 A 
HETATM   13  C17 UNL     1      17.503   4.841  -6.059  1.00  0.00     0.045 C 
HETATM   14  C38 UNL     1      16.205   5.160  -5.250  1.00  0.00     0.054 C 
HETATM   15  C39 UNL     1      16.590   4.801  -3.751  1.00  0.00     0.182 C 
HETATM   16  C40 UNL     1      16.561   5.883  -2.714  1.00  0.00     0.241 C 
HETATM   17  O4  UNL     1      15.665   6.769  -2.736  1.00  0.00    -0.271 OA
HETATM   18  N6  UNL     1      17.532   5.865  -1.652  1.00  0.00    -0.346 N 
HETATM   19  H13 UNL     1      19.659   2.278  -5.330  1.00  0.00     0.161 HD
HETATM   20  H36 UNL     1      17.530   6.648  -0.961  1.00  0.00     0.163 HD
ENDROOT
BRANCH  13  21
HETATM   21  C18 UNL     1      18.428   6.165  -6.284  1.00  0.00     0.045 A 
HETATM   22  C19 UNL     1      19.403   6.150  -7.531  1.00  0.00     0.202 A 
HETATM   23  N3  UNL     1      20.751   6.242  -6.997  1.00  0.00    -0.314 N 
HETATM   24  N5  UNL     1      19.089   7.337  -8.320  1.00  0.00    -0.367 N 
HETATM   25  C20 UNL     1      20.792   6.203  -5.555  1.00  0.00     0.182 C 
HETATM   26  C30 UNL     1      21.937   6.323  -7.794  1.00  0.00     0.245 C 
HETATM   27  C21 UNL     1      21.870   7.105  -5.035  1.00  0.00     0.241 C 
HETATM   28  C31 UNL     1      19.385   6.596  -5.125  1.00  0.00     0.054 C 
HETATM   29  O2  UNL     1      21.806   7.555  -3.858  1.00  0.00    -0.271 OA
HETATM   30  N4  UNL     1      23.027   7.383  -5.835  1.00  0.00    -0.346 N 
HETATM   31  C22 UNL     1      23.205   6.907  -7.216  1.00  0.00     0.181 C 
HETATM   32  H18 UNL     1      23.831   7.869  -5.378  1.00  0.00     0.163 HD
HETATM   33  O3  UNL     1      21.925   5.906  -8.984  1.00  0.00    -0.271 OA
HETATM   34  C32 UNL     1      17.979   7.986  -7.751  1.00  0.00     0.036 A 
HETATM   35  H29 UNL     1      19.532   7.591  -9.230  1.00  0.00     0.161 HD
HETATM   36  C33 UNL     1      17.388   9.157  -8.226  1.00  0.00     0.030 A 
HETATM   37  C37 UNL     1      17.549   7.363  -6.607  1.00  0.00    -0.018 A 
HETATM   38  C34 UNL     1      16.321   9.705  -7.500  1.00  0.00     0.002 A 
HETATM   39  C35 UNL     1      15.881   9.089  -6.316  1.00  0.00     0.001 A 
HETATM   40  C36 UNL     1      16.505   7.918  -5.853  1.00  0.00     0.010 A 
BRANCH  31  41
HETATM   41  C23 UNL     1      23.745   8.052  -8.099  1.00  0.00     0.073 C 
BRANCH  41  42
HETATM   42  C24 UNL     1      22.668   9.036  -8.495  1.00  0.00    -0.056 A 
HETATM   43  C25 UNL     1      21.918   9.704  -7.511  1.00  0.00     0.007 A 
HETATM   44  C26 UNL     1      20.886  10.573  -7.880  1.00  0.00     0.001 A 
HETATM   45  C27 UNL     1      20.594  10.782  -9.230  1.00  0.00     0.000 A 
HETATM   46  C28 UNL     1      21.340  10.128 -10.215  1.00  0.00     0.001 A 
HETATM   47  C29 UNL     1      22.373   9.259  -9.851  1.00  0.00     0.007 A 
ENDBRANCH  41  42
ENDBRANCH  31  41
ENDBRANCH  13  21
BRANCH   1  48
HETATM   48  C2  UNL     1      17.747   3.713  -0.453  1.00  0.00     0.073 C 
BRANCH  48  49
HETATM   49  C3  UNL     1      16.292   4.042  -0.245  1.00  0.00    -0.056 A 
HETATM   50  C4  UNL     1      15.919   5.059   0.650  1.00  0.00     0.007 A 
HETATM   51  C5  UNL     1      14.569   5.378   0.831  1.00  0.00     0.001 A 
HETATM   52  C6  UNL     1      13.584   4.685   0.121  1.00  0.00     0.000 A 
HETATM   53  C7  UNL     1      13.948   3.681  -0.778  1.00  0.00     0.001 A 
HETATM   54  C8  UNL     1      15.296   3.359  -0.964  1.00  0.00     0.007 A 
ENDBRANCH  48  49
ENDBRANCH   1  48
TORSDOF 5
ENDMDL
MODEL 15
REMARK VINA RESULT:     -11.1      8.620     13.710
REMARK  5 active torsions:
REMARK  status: ('A' for Active; 'I' for Inactive)
REMARK    1  A    between atoms: C1_1  and  C2_2 
REMARK    2  A    between atoms: C2_2  and  C3_3 
REMARK    3  A    between atoms: C17_20  and  C18_21 
REMARK    4  A    between atoms: C22_28  and  C23_29 
REMARK    5  A    between atoms: C23_29  and  C24_30 
ROOT
HETATM    1  C1  UNL     1      25.725  -4.433  -4.763  1.00  0.00     0.181 C 
HETATM    2  C9  UNL     1      24.627  -3.426  -4.537  1.00  0.00     0.245 C 
HETATM    3  O1  UNL     1      23.945  -3.439  -3.478  1.00  0.00    -0.271 OA
HETATM    4  N1  UNL     1      24.372  -2.462  -5.556  1.00  0.00    -0.314 N 
HETATM    5  C10 UNL     1      23.463  -1.363  -5.615  1.00  0.00     0.202 C 
HETATM    6  N2  UNL     1      22.300  -1.218  -4.765  1.00  0.00    -0.367 N 
HETATM    7  C11 UNL     1      21.669  -0.171  -5.526  1.00  0.00     0.036 A 
HETATM    8  C12 UNL     1      20.784   0.784  -5.029  1.00  0.00     0.030 A 
HETATM    9  C13 UNL     1      20.372   1.822  -5.882  1.00  0.00     0.002 A 
HETATM   10  C14 UNL     1      20.860   1.902  -7.203  1.00  0.00     0.001 A 
HETATM   11  C15 UNL     1      21.765   0.944  -7.688  1.00  0.00     0.010 A 
HETATM   12  C16 UNL     1      22.158  -0.085  -6.834  1.00  0.00    -0.018 A 
HETATM   13  C17 UNL     1      23.014  -1.299  -7.078  1.00  0.00     0.045 C 
HETATM   14  C38 UNL     1      24.454  -1.310  -7.684  1.00  0.00     0.054 C 
HETATM   15  C39 UNL     1      25.300  -2.166  -6.648  1.00  0.00     0.182 C 
HETATM   16  C40 UNL     1      25.944  -3.438  -7.110  1.00  0.00     0.241 C 
HETATM   17  O4  UNL     1      26.451  -3.519  -8.261  1.00  0.00    -0.271 OA
HETATM   18  N6  UNL     1      26.036  -4.551  -6.201  1.00  0.00    -0.346 N 
HETATM   19  H13 UNL     1      22.325  -1.233  -3.722  1.00  0.00     0.161 HD
HETATM   20  H36 UNL     1      26.446  -5.445  -6.548  1.00  0.00     0.163 HD
ENDROOT
BRANCH  13  21
HETATM   21  C18 UNL     1      22.071  -2.468  -7.715  1.00  0.00     0.045 A 
HETATM   22  C19 UNL     1      20.987  -3.109  -6.756  1.00  0.00     0.202 A 
HETATM   23  N3  UNL     1      21.327  -4.517  -6.637  1.00  0.00    -0.314 N 
HETATM   24  N5  UNL     1      19.698  -2.954  -7.423  1.00  0.00    -0.367 N 
HETATM   25  C20 UNL     1      22.559  -4.858  -7.305  1.00  0.00     0.182 C 
HETATM   26  C30 UNL     1      20.559  -5.479  -5.907  1.00  0.00     0.245 C 
HETATM   27  C21 UNL     1      22.464  -6.222  -7.919  1.00  0.00     0.241 C 
HETATM   28  C31 UNL     1      22.772  -3.733  -8.309  1.00  0.00     0.054 C 
HETATM   29  O2  UNL     1      23.215  -6.537  -8.883  1.00  0.00    -0.271 OA
HETATM   30  N4  UNL     1      21.590  -7.209  -7.354  1.00  0.00    -0.346 N 
HETATM   31  C22 UNL     1      20.676  -6.951  -6.230  1.00  0.00     0.181 C 
HETATM   32  H18 UNL     1      21.677  -8.192  -7.697  1.00  0.00     0.163 HD
HETATM   33  O3  UNL     1      19.783  -5.099  -4.988  1.00  0.00    -0.271 OA
HETATM   34  C32 UNL     1      19.876  -2.206  -8.600  1.00  0.00     0.036 A 
HETATM   35  H29 UNL     1      18.776  -3.240  -7.026  1.00  0.00     0.161 HD
HETATM   36  C33 UNL     1      18.872  -1.855  -9.503  1.00  0.00     0.030 A 
HETATM   37  C37 UNL     1      21.193  -1.887  -8.812  1.00  0.00    -0.018 A 
HETATM   38  C34 UNL     1      19.235  -1.155 -10.661  1.00  0.00     0.002 A 
HETATM   39  C35 UNL     1      20.583  -0.836 -10.902  1.00  0.00     0.001 A 
HETATM   40  C36 UNL     1      21.575  -1.216  -9.982  1.00  0.00     0.010 A 
BRANCH  31  41
HETATM   41  C23 UNL     1      19.293  -7.568  -6.528  1.00  0.00     0.073 C 
BRANCH  41  42
HETATM   42  C24 UNL     1      18.601  -6.902  -7.696  1.00  0.00    -0.056 A 
HETATM   43  C25 UNL     1      18.979  -7.208  -9.015  1.00  0.00     0.007 A 
HETATM   44  C26 UNL     1      18.375  -6.553 -10.093  1.00  0.00     0.001 A 
HETATM   45  C27 UNL     1      17.391  -5.588  -9.864  1.00  0.00     0.000 A 
HETATM   46  C28 UNL     1      17.003  -5.283  -8.555  1.00  0.00     0.001 A 
HETATM   47  C29 UNL     1      17.604  -5.936  -7.475  1.00  0.00     0.007 A 
ENDBRANCH  41  42
ENDBRANCH  31  41
ENDBRANCH  13  21
BRANCH   1  48
HETATM   48  C2  UNL     1      26.979  -4.023  -3.977  1.00  0.00     0.073 C 
BRANCH  48  49
HETATM   49  C3  UNL     1      26.985  -4.620  -2.595  1.00  0.00    -0.056 A 
HETATM   50  C4  UNL     1      27.604  -3.937  -1.533  1.00  0.00     0.007 A 
HETATM   51  C5  UNL     1      27.596  -4.482  -0.245  1.00  0.00     0.001 A 
HETATM   52  C6  UNL     1      26.970  -5.709  -0.007  1.00  0.00     0.000 A 
HETATM   53  C7  UNL     1      26.343  -6.388  -1.054  1.00  0.00     0.001 A 
HETATM   54  C8  UNL     1      26.347  -5.847  -2.344  1.00  0.00     0.007 A 
ENDBRANCH  48  49
ENDBRANCH   1  48
TORSDOF 5
ENDMDL
MODEL 16
REMARK VINA RESULT:     -11.1      2.814      9.168
REMARK  5 active torsions:
REMARK  status: ('A' for Active; 'I' for Inactive)
REMARK    1  A    between atoms: C1_1  and  C2_2 
REMARK    2  A    between atoms: C2_2  and  C3_3 
REMARK    3  A    between atoms: C17_20  and  C18_21 
REMARK    4  A    between atoms: C22_28  and  C23_29 
REMARK    5  A    between atoms: C23_29  and  C24_30 
ROOT
HETATM    1  C1  UNL     1      16.152   6.446  -3.416  1.00  0.00     0.181 C 
HETATM    2  C9  UNL     1      16.356   7.341  -4.612  1.00  0.00     0.245 C 
HETATM    3  O1  UNL     1      15.452   7.479  -5.477  1.00  0.00    -0.271 OA
HETATM    4  N1  UNL     1      17.602   8.019  -4.743  1.00  0.00    -0.314 N 
HETATM    5  C10 UNL     1      18.070   8.963  -5.707  1.00  0.00     0.202 C 
HETATM    6  N2  UNL     1      17.483   9.152  -7.017  1.00  0.00    -0.367 N 
HETATM    7  C11 UNL     1      18.564   9.924  -7.572  1.00  0.00     0.036 A 
HETATM    8  C12 UNL     1      18.462  10.853  -8.606  1.00  0.00     0.030 A 
HETATM    9  C13 UNL     1      19.593  11.622  -8.929  1.00  0.00     0.002 A 
HETATM   10  C14 UNL     1      20.795  11.468  -8.208  1.00  0.00     0.001 A 
HETATM   11  C15 UNL     1      20.883  10.540  -7.157  1.00  0.00     0.010 A 
HETATM   12  C16 UNL     1      19.756   9.778  -6.854  1.00  0.00    -0.018 A 
HETATM   13  C17 UNL     1      19.560   8.651  -5.876  1.00  0.00     0.045 C 
HETATM   14  C38 UNL     1      19.899   8.678  -4.350  1.00  0.00     0.054 C 
HETATM   15  C39 UNL     1      18.564   8.177  -3.652  1.00  0.00     0.182 C 
HETATM   16  C40 UNL     1      18.597   6.920  -2.836  1.00  0.00     0.241 C 
HETATM   17  O4  UNL     1      19.596   6.649  -2.116  1.00  0.00    -0.271 OA
HETATM   18  N6  UNL     1      17.448   6.053  -2.831  1.00  0.00    -0.346 N 
HETATM   19  H13 UNL     1      16.477   9.369  -7.188  1.00  0.00     0.161 HD
HETATM   20  H36 UNL     1      17.501   5.159  -2.295  1.00  0.00     0.163 HD
ENDROOT
BRANCH  13  21
HETATM   21  C18 UNL     1      20.048   7.267  -6.588  1.00  0.00     0.045 A 
HETATM   22  C19 UNL     1      19.223   6.787  -7.852  1.00  0.00     0.202 A 
HETATM   23  N3  UNL     1      18.648   5.500  -7.500  1.00  0.00    -0.314 N 
HETATM   24  N5  UNL     1      20.183   6.632  -8.941  1.00  0.00    -0.367 N 
HETATM   25  C20 UNL     1      18.897   5.126  -6.129  1.00  0.00     0.182 C 
HETATM   26  C30 UNL     1      17.876   4.686  -8.388  1.00  0.00     0.245 C 
HETATM   27  C21 UNL     1      19.118   3.647  -6.020  1.00  0.00     0.241 C 
HETATM   28  C31 UNL     1      20.095   5.970  -5.716  1.00  0.00     0.054 C 
HETATM   29  O2  UNL     1      19.760   3.174  -5.042  1.00  0.00    -0.271 OA
HETATM   30  N4  UNL     1      18.518   2.756  -6.969  1.00  0.00    -0.346 N 
HETATM   31  C22 UNL     1      17.747   3.200  -8.141  1.00  0.00     0.181 C 
HETATM   32  H18 UNL     1      18.548   1.731  -6.763  1.00  0.00     0.163 HD
HETATM   33  O3  UNL     1      17.299   5.208  -9.381  1.00  0.00    -0.271 OA
HETATM   34  C32 UNL     1      21.447   7.066  -8.505  1.00  0.00     0.036 A 
HETATM   35  H29 UNL     1      19.944   6.366  -9.921  1.00  0.00     0.161 HD
HETATM   36  C33 UNL     1      22.616   7.068  -9.266  1.00  0.00     0.030 A 
HETATM   37  C37 UNL     1      21.433   7.453  -7.189  1.00  0.00    -0.018 A 
HETATM   38  C34 UNL     1      23.808   7.479  -8.654  1.00  0.00     0.002 A 
HETATM   39  C35 UNL     1      23.813   7.861  -7.301  1.00  0.00     0.001 A 
HETATM   40  C36 UNL     1      22.623   7.835  -6.554  1.00  0.00     0.010 A 
BRANCH  31  41
HETATM   41  C23 UNL     1      18.171   2.389  -9.384  1.00  0.00     0.073 C 
BRANCH  41  42
HETATM   42  C24 UNL     1      19.471   2.881  -9.981  1.00  0.00    -0.056 A 
HETATM   43  C25 UNL     1      20.660   2.831  -9.233  1.00  0.00     0.007 A 
HETATM   44  C26 UNL     1      21.851   3.335  -9.768  1.00  0.00     0.001 A 
HETATM   45  C27 UNL     1      21.864   3.891 -11.049  1.00  0.00     0.000 A 
HETATM   46  C28 UNL     1      20.687   3.937 -11.802  1.00  0.00     0.001 A 
HETATM   47  C29 UNL     1      19.495   3.434 -11.273  1.00  0.00     0.007 A 
ENDBRANCH  41  42
ENDBRANCH  31  41
ENDBRANCH  13  21
BRANCH   1  48
HETATM   48  C2  UNL     1      15.288   7.164  -2.368  1.00  0.00     0.073 C 
BRANCH  48  49
HETATM   49  C3  UNL     1      14.653   6.190  -1.412  1.00  0.00    -0.056 A 
HETATM   50  C4  UNL     1      14.218   6.623  -0.148  1.00  0.00     0.007 A 
HETATM   51  C5  UNL     1      13.612   5.723   0.735  1.00  0.00     0.001 A 
HETATM   52  C6  UNL     1      13.435   4.387   0.362  1.00  0.00     0.000 A 
HETATM   53  C7  UNL     1      13.853   3.953  -0.897  1.00  0.00     0.001 A 
HETATM   54  C8  UNL     1      14.459   4.849  -1.784  1.00  0.00     0.007 A 
ENDBRANCH  48  49
ENDBRANCH   1  48
TORSDOF 5
ENDMDL
MODEL 17
REMARK VINA RESULT:     -11.0      3.238      7.876
REMARK  5 active torsions:
REMARK  status: ('A' for Active; 'I' for Inactive)
REMARK    1  A    between atoms: C1_1  and  C2_2 
REMARK    2  A    between atoms: C2_2  and  C3_3 
REMARK    3  A    between atoms: C17_20  and  C18_21 
REMARK    4  A    between atoms: C22_28  and  C23_29 
REMARK    5  A    between atoms: C23_29  and  C24_30 
ROOT
HETATM    1  C1  UNL     1      16.472   5.667 -10.040  1.00  0.00     0.181 C 
HETATM    2  C9  UNL     1      16.047   6.226  -8.706  1.00  0.00     0.245 C 
HETATM    3  O1  UNL     1      15.451   7.332  -8.629  1.00  0.00    -0.271 OA
HETATM    4  N1  UNL     1      16.346   5.475  -7.532  1.00  0.00    -0.314 N 
HETATM    5  C10 UNL     1      16.029   5.698  -6.158  1.00  0.00     0.202 C 
HETATM    6  N2  UNL     1      15.644   6.980  -5.607  1.00  0.00    -0.367 N 
HETATM    7  C11 UNL     1      15.810   6.621  -4.222  1.00  0.00     0.036 A 
HETATM    8  C12 UNL     1      15.145   7.196  -3.141  1.00  0.00     0.030 A 
HETATM    9  C13 UNL     1      15.321   6.627  -1.868  1.00  0.00     0.002 A 
HETATM   10  C14 UNL     1      16.135   5.488  -1.697  1.00  0.00     0.001 A 
HETATM   11  C15 UNL     1      16.787   4.906  -2.797  1.00  0.00     0.010 A 
HETATM   12  C16 UNL     1      16.611   5.487  -4.052  1.00  0.00    -0.018 A 
HETATM   13  C17 UNL     1      17.241   5.172  -5.383  1.00  0.00     0.045 C 
HETATM   14  C38 UNL     1      17.280   3.775  -6.082  1.00  0.00     0.054 C 
HETATM   15  C39 UNL     1      16.730   4.063  -7.544  1.00  0.00     0.182 C 
HETATM   16  C40 UNL     1      17.622   3.802  -8.721  1.00  0.00     0.241 C 
HETATM   17  O4  UNL     1      18.395   2.807  -8.731  1.00  0.00    -0.271 OA
HETATM   18  N6  UNL     1      17.542   4.666  -9.869  1.00  0.00    -0.346 N 
HETATM   19  H13 UNL     1      14.851   7.560  -5.958  1.00  0.00     0.161 HD
HETATM   20  H36 UNL     1      18.199   4.501 -10.663  1.00  0.00     0.163 HD
ENDROOT
BRANCH  13  21
HETATM   21  C18 UNL     1      18.679   5.938  -5.460  1.00  0.00     0.045 A 
HETATM   22  C19 UNL     1      18.645   7.521  -5.429  1.00  0.00     0.202 A 
HETATM   23  N3  UNL     1      19.209   7.966  -6.693  1.00  0.00    -0.314 N 
HETATM   24  N5  UNL     1      19.500   7.934  -4.321  1.00  0.00    -0.367 N 
HETATM   25  C20 UNL     1      19.505   6.879  -7.594  1.00  0.00     0.182 C 
HETATM   26  C30 UNL     1      19.422   9.336  -7.049  1.00  0.00     0.245 C 
HETATM   27  C21 UNL     1      20.753   7.166  -8.372  1.00  0.00     0.241 C 
HETATM   28  C31 UNL     1      19.595   5.654  -6.694  1.00  0.00     0.054 C 
HETATM   29  O2  UNL     1      21.420   6.218  -8.871  1.00  0.00    -0.271 OA
HETATM   30  N4  UNL     1      21.142   8.520  -8.638  1.00  0.00    -0.346 N 
HETATM   31  C22 UNL     1      20.435   9.697  -8.110  1.00  0.00     0.181 C 
HETATM   32  H18 UNL     1      21.914   8.680  -9.325  1.00  0.00     0.163 HD
HETATM   33  O3  UNL     1      18.762  10.245  -6.476  1.00  0.00    -0.271 OA
HETATM   34  C32 UNL     1      19.941   6.791  -3.630  1.00  0.00     0.036 A 
HETATM   35  H29 UNL     1      19.653   8.919  -4.012  1.00  0.00     0.161 HD
HETATM   36  C33 UNL     1      20.777   6.785  -2.513  1.00  0.00     0.030 A 
HETATM   37  C37 UNL     1      19.497   5.633  -4.215  1.00  0.00    -0.018 A 
HETATM   38  C34 UNL     1      21.169   5.549  -1.982  1.00  0.00     0.002 A 
HETATM   39  C35 UNL     1      20.738   4.353  -2.582  1.00  0.00     0.001 A 
HETATM   40  C36 UNL     1      19.908   4.389  -3.716  1.00  0.00     0.010 A 
BRANCH  31  41
HETATM   41  C23 UNL     1      21.456  10.726  -7.579  1.00  0.00     0.073 C 
BRANCH  41  42
HETATM   42  C24 UNL     1      22.010  10.346  -6.225  1.00  0.00    -0.056 A 
HETATM   43  C25 UNL     1      21.678  11.097  -5.084  1.00  0.00     0.007 A 
HETATM   44  C26 UNL     1      22.234  10.775  -3.841  1.00  0.00     0.001 A 
HETATM   45  C27 UNL     1      23.124   9.704  -3.727  1.00  0.00     0.000 A 
HETATM   46  C28 UNL     1      23.454   8.948  -4.856  1.00  0.00     0.001 A 
HETATM   47  C29 UNL     1      22.901   9.265  -6.099  1.00  0.00     0.007 A 
ENDBRANCH  41  42
ENDBRANCH  31  41
ENDBRANCH  13  21
BRANCH   1  48
HETATM   48  C2  UNL     1      15.263   5.041 -10.752  1.00  0.00     0.073 C 
BRANCH  48  49
HETATM   49  C3  UNL     1      14.191   6.062 -11.023  1.00  0.00    -0.056 A 
HETATM   50  C4  UNL     1      12.936   5.951 -10.399  1.00  0.00     0.007 A 
HETATM   51  C5  UNL     1      11.944   6.908 -10.636  1.00  0.00     0.001 A 
HETATM   52  C6  UNL     1      12.197   7.982 -11.495  1.00  0.00     0.000 A 
HETATM   53  C7  UNL     1      13.445   8.106 -12.109  1.00  0.00     0.001 A 
HETATM   54  C8  UNL     1      14.440   7.152 -11.874  1.00  0.00     0.007 A 
ENDBRANCH  48  49
ENDBRANCH   1  48
TORSDOF 5
ENDMDL
MODEL 18
REMARK VINA RESULT:     -11.0      3.167      9.129
REMARK  5 active torsions:
REMARK  status: ('A' for Active; 'I' for Inactive)
REMARK    1  A    between atoms: C1_1  and  C2_2 
REMARK    2  A    between atoms: C2_2  and  C3_3 
REMARK    3  A    between atoms: C17_20  and  C18_21 
REMARK    4  A    between atoms: C22_28  and  C23_29 
REMARK    5  A    between atoms: C23_29  and  C24_30 
ROOT
HETATM    1  C1  UNL     1      16.108   6.415  -3.255  1.00  0.00     0.181 C 
HETATM    2  C9  UNL     1      16.343   7.314  -4.441  1.00  0.00     0.245 C 
HETATM    3  O1  UNL     1      15.439   7.507  -5.295  1.00  0.00    -0.271 OA
HETATM    4  N1  UNL     1      17.620   7.934  -4.577  1.00  0.00    -0.314 N 
HETATM    5  C10 UNL     1      18.123   8.867  -5.534  1.00  0.00     0.202 C 
HETATM    6  N2  UNL     1      17.533   9.100  -6.835  1.00  0.00    -0.367 N 
HETATM    7  C11 UNL     1      18.645   9.827  -7.392  1.00  0.00     0.036 A 
HETATM    8  C12 UNL     1      18.577  10.773  -8.413  1.00  0.00     0.030 A 
HETATM    9  C13 UNL     1      19.741  11.490  -8.738  1.00  0.00     0.002 A 
HETATM   10  C14 UNL     1      20.941  11.270  -8.032  1.00  0.00     0.001 A 
HETATM   11  C15 UNL     1      20.994  10.325  -6.993  1.00  0.00     0.010 A 
HETATM   12  C16 UNL     1      19.835   9.614  -6.688  1.00  0.00    -0.018 A 
HETATM   13  C17 UNL     1      19.595   8.485  -5.722  1.00  0.00     0.045 C 
HETATM   14  C38 UNL     1      19.949   8.476  -4.200  1.00  0.00     0.054 C 
HETATM   15  C39 UNL     1      18.598   8.031  -3.494  1.00  0.00     0.182 C 
HETATM   16  C40 UNL     1      18.579   6.763  -2.694  1.00  0.00     0.241 C 
HETATM   17  O4  UNL     1      19.571   6.435  -1.989  1.00  0.00    -0.271 OA
HETATM   18  N6  UNL     1      17.389   5.952  -2.689  1.00  0.00    -0.346 N 
HETATM   19  H13 UNL     1      16.536   9.368  -6.993  1.00  0.00     0.161 HD
HETATM   20  H36 UNL     1      17.404   5.050  -2.164  1.00  0.00     0.163 HD
ENDROOT
BRANCH  13  21
HETATM   21  C18 UNL     1      20.008   7.088  -6.457  1.00  0.00     0.045 A 
HETATM   22  C19 UNL     1      19.156   6.671  -7.724  1.00  0.00     0.202 A 
HETATM   23  N3  UNL     1      18.516   5.410  -7.389  1.00  0.00    -0.314 N 
HETATM   24  N5  UNL     1      20.103   6.483  -8.819  1.00  0.00    -0.367 N 
HETATM   25  C20 UNL     1      18.750   5.003  -6.025  1.00  0.00     0.182 C 
HETATM   26  C30 UNL     1      17.700   4.650  -8.287  1.00  0.00     0.245 C 
HETATM   27  C21 UNL     1      18.894   3.514  -5.939  1.00  0.00     0.241 C 
HETATM   28  C31 UNL     1      19.991   5.778  -5.605  1.00  0.00     0.054 C 
HETATM   29  O2  UNL     1      19.514   2.993  -4.971  1.00  0.00    -0.271 OA
HETATM   30  N4  UNL     1      18.246   2.669  -6.899  1.00  0.00    -0.346 N 
HETATM   31  C22 UNL     1      17.496   3.170  -8.061  1.00  0.00     0.181 C 
HETATM   32  H18 UNL     1      18.224   1.641  -6.709  1.00  0.00     0.163 HD
HETATM   33  O3  UNL     1      17.148   5.217  -9.269  1.00  0.00    -0.271 OA
HETATM   34  C32 UNL     1      21.389   6.845  -8.381  1.00  0.00     0.036 A 
HETATM   35  H29 UNL     1      19.848   6.245  -9.802  1.00  0.00     0.161 HD
HETATM   36  C33 UNL     1      22.554   6.798  -9.147  1.00  0.00     0.030 A 
HETATM   37  C37 UNL     1      21.399   7.212  -7.060  1.00  0.00    -0.018 A 
HETATM   38  C34 UNL     1      23.768   7.138  -8.534  1.00  0.00     0.002 A 
HETATM   39  C35 UNL     1      23.797   7.498  -7.175  1.00  0.00     0.001 A 
HETATM   40  C36 UNL     1      22.609   7.522  -6.424  1.00  0.00     0.010 A 
BRANCH  31  41
HETATM   41  C23 UNL     1      17.874   2.357  -9.318  1.00  0.00     0.073 C 
BRANCH  41  42
HETATM   42  C24 UNL     1      16.700   2.153 -10.250  1.00  0.00    -0.056 A 
HETATM   43  C25 UNL     1      15.412   1.931  -9.734  1.00  0.00     0.007 A 
HETATM   44  C26 UNL     1      14.338   1.690 -10.597  1.00  0.00     0.001 A 
HETATM   45  C27 UNL     1      14.541   1.668 -11.979  1.00  0.00     0.000 A 
HETATM   46  C28 UNL     1      15.818   1.897 -12.501  1.00  0.00     0.001 A 
HETATM   47  C29 UNL     1      16.894   2.139 -11.643  1.00  0.00     0.007 A 
ENDBRANCH  41  42
ENDBRANCH  31  41
ENDBRANCH  13  21
BRANCH   1  48
HETATM   48  C2  UNL     1      15.291   7.160  -2.189  1.00  0.00     0.073 C 
BRANCH  48  49
HETATM   49  C3  UNL     1      14.579   6.204  -1.269  1.00  0.00    -0.056 A 
HETATM   50  C4  UNL     1      14.353   4.875  -1.668  1.00  0.00     0.007 A 
HETATM   51  C5  UNL     1      13.708   3.981  -0.808  1.00  0.00     0.001 A 
HETATM   52  C6  UNL     1      13.286   4.406   0.456  1.00  0.00     0.000 A 
HETATM   53  C7  UNL     1      13.518   5.721   0.864  1.00  0.00     0.001 A 
HETATM   54  C8  UNL     1      14.163   6.618   0.008  1.00  0.00     0.007 A 
ENDBRANCH  48  49
ENDBRANCH   1  48
TORSDOF 5
ENDMDL
MODEL 19
REMARK VINA RESULT:     -10.7     10.568     14.077
REMARK  5 active torsions:
REMARK  status: ('A' for Active; 'I' for Inactive)
REMARK    1  A    between atoms: C1_1  and  C2_2 
REMARK    2  A    between atoms: C2_2  and  C3_3 
REMARK    3  A    between atoms: C17_20  and  C18_21 
REMARK    4  A    between atoms: C22_28  and  C23_29 
REMARK    5  A    between atoms: C23_29  and  C24_30 
ROOT
HETATM    1  C1  UNL     1      21.015  -4.554  -7.487  1.00  0.00     0.181 C 
HETATM    2  C9  UNL     1      22.355  -4.663  -8.167  1.00  0.00     0.245 C 
HETATM    3  O1  UNL     1      23.086  -5.673  -7.995  1.00  0.00    -0.271 OA
HETATM    4  N1  UNL     1      22.779  -3.589  -9.003  1.00  0.00    -0.314 N 
HETATM    5  C10 UNL     1      23.941  -3.424  -9.817  1.00  0.00     0.202 C 
HETATM    6  N2  UNL     1      25.161  -4.187  -9.663  1.00  0.00    -0.367 N 
HETATM    7  C11 UNL     1      25.989  -3.342 -10.484  1.00  0.00     0.036 A 
HETATM    8  C12 UNL     1      27.131  -3.738 -11.178  1.00  0.00     0.030 A 
HETATM    9  C13 UNL     1      27.738  -2.816 -12.047  1.00  0.00     0.002 A 
HETATM   10  C14 UNL     1      27.190  -1.529 -12.226  1.00  0.00     0.001 A 
HETATM   11  C15 UNL     1      26.029  -1.146 -11.535  1.00  0.00     0.010 A 
HETATM   12  C16 UNL     1      25.442  -2.067 -10.669  1.00  0.00    -0.018 A 
HETATM   13  C17 UNL     1      24.278  -1.932  -9.724  1.00  0.00     0.045 C 
HETATM   14  C38 UNL     1      22.845  -1.425 -10.087  1.00  0.00     0.054 C 
HETATM   15  C39 UNL     1      21.883  -2.551  -9.513  1.00  0.00     0.182 C 
HETATM   16  C40 UNL     1      20.890  -2.187  -8.451  1.00  0.00     0.241 C 
HETATM   17  O4  UNL     1      20.295  -1.077  -8.483  1.00  0.00    -0.271 OA
HETATM   18  N6  UNL     1      20.575  -3.147  -7.424  1.00  0.00    -0.346 N 
HETATM   19  H13 UNL     1      25.212  -5.229  -9.678  1.00  0.00     0.161 HD
HETATM   20  H36 UNL     1      19.916  -2.865  -6.665  1.00  0.00     0.163 HD
ENDROOT
BRANCH  13  21
HETATM   21  C18 UNL     1      24.825  -1.284  -8.331  1.00  0.00     0.045 A 
HETATM   22  C19 UNL     1      25.803  -2.178  -7.465  1.00  0.00     0.202 A 
HETATM   23  N3  UNL     1      25.130  -2.408  -6.197  1.00  0.00    -0.314 N 
HETATM   24  N5  UNL     1      27.014  -1.390  -7.259  1.00  0.00    -0.367 N 
HETATM   25  C20 UNL     1      23.791  -1.874  -6.163  1.00  0.00     0.182 C 
HETATM   26  C30 UNL     1      25.699  -3.123  -5.095  1.00  0.00     0.245 C 
HETATM   27  C21 UNL     1      23.475  -1.335  -4.800  1.00  0.00     0.241 C 
HETATM   28  C31 UNL     1      23.770  -0.830  -7.270  1.00  0.00     0.054 C 
HETATM   29  O2  UNL     1      22.575  -0.463  -4.658  1.00  0.00    -0.271 OA
HETATM   30  N4  UNL     1      24.123  -1.877  -3.641  1.00  0.00    -0.346 N 
HETATM   31  C22 UNL     1      25.181  -2.897  -3.693  1.00  0.00     0.181 C 
HETATM   32  H18 UNL     1      23.755  -1.601  -2.703  1.00  0.00     0.163 HD
HETATM   33  O3  UNL     1      26.635  -3.945  -5.293  1.00  0.00    -0.271 OA
HETATM   34  C32 UNL     1      26.913  -0.192  -7.988  1.00  0.00     0.036 A 
HETATM   35  H29 UNL     1      27.869  -1.719  -6.760  1.00  0.00     0.161 HD
HETATM   36  C33 UNL     1      27.876   0.816  -8.038  1.00  0.00     0.030 A 
HETATM   37  C37 UNL     1      25.706  -0.081  -8.629  1.00  0.00    -0.018 A 
HETATM   38  C34 UNL     1      27.587   1.976  -8.769  1.00  0.00     0.002 A 
HETATM   39  C35 UNL     1      26.346   2.114  -9.416  1.00  0.00     0.001 A 
HETATM   40  C36 UNL     1      25.389   1.088  -9.336  1.00  0.00     0.010 A 
BRANCH  31  41
HETATM   41  C23 UNL     1      26.326  -2.514  -2.731  1.00  0.00     0.073 C 
BRANCH  41  42
HETATM   42  C24 UNL     1      26.611  -3.593  -1.711  1.00  0.00    -0.056 A 
HETATM   43  C25 UNL     1      26.161  -4.908  -1.922  1.00  0.00     0.007 A 
HETATM   44  C26 UNL     1      26.380  -5.893  -0.953  1.00  0.00     0.001 A 
HETATM   45  C27 UNL     1      27.046  -5.574   0.233  1.00  0.00     0.000 A 
HETATM   46  C28 UNL     1      27.504  -4.270   0.448  1.00  0.00     0.001 A 
HETATM   47  C29 UNL     1      27.288  -3.283  -0.518  1.00  0.00     0.007 A 
ENDBRANCH  41  42
ENDBRANCH  31  41
ENDBRANCH  13  21
BRANCH   1  48
HETATM   48  C2  UNL     1      19.978  -5.404  -8.236  1.00  0.00     0.073 C 
BRANCH  48  49
HETATM   49  C3  UNL     1      19.455  -6.524  -7.376  1.00  0.00    -0.056 A 
HETATM   50  C4  UNL     1      20.212  -7.696  -7.206  1.00  0.00     0.007 A 
HETATM   51  C5  UNL     1      19.736  -8.730  -6.393  1.00  0.00     0.001 A 
HETATM   52  C6  UNL     1      18.504  -8.602  -5.745  1.00  0.00     0.000 A 
HETATM   53  C7  UNL     1      17.752  -7.435  -5.900  1.00  0.00     0.001 A 
HETATM   54  C8  UNL     1      18.224  -6.398  -6.710  1.00  0.00     0.007 A 
ENDBRANCH  48  49
ENDBRANCH   1  48
TORSDOF 5
ENDMDL
MODEL 20
REMARK VINA RESULT:     -10.7      3.104      6.420
REMARK  5 active torsions:
REMARK  status: ('A' for Active; 'I' for Inactive)
REMARK    1  A    between atoms: C1_1  and  C2_2 
REMARK    2  A    between atoms: C2_2  and  C3_3 
REMARK    3  A    between atoms: C17_20  and  C18_21 
REMARK    4  A    between atoms: C22_28  and  C23_29 
REMARK    5  A    between atoms: C23_29  and  C24_30 
ROOT
HETATM    1  C1  UNL     1      21.728   4.438  -9.722  1.00  0.00     0.181 C 
HETATM    2  C9  UNL     1      22.080   4.990  -8.365  1.00  0.00     0.245 C 
HETATM    3  O1  UNL     1      22.327   4.221  -7.399  1.00  0.00    -0.271 OA
HETATM    4  N1  UNL     1      22.116   6.405  -8.199  1.00  0.00    -0.314 N 
HETATM    5  C10 UNL     1      22.467   7.220  -7.080  1.00  0.00     0.202 C 
HETATM    6  N2  UNL     1      22.502   6.753  -5.710  1.00  0.00    -0.367 N 
HETATM    7  C11 UNL     1      22.567   8.054  -5.095  1.00  0.00     0.036 A 
HETATM    8  C12 UNL     1      23.121   8.346  -3.850  1.00  0.00     0.030 A 
HETATM    9  C13 UNL     1      23.228   9.693  -3.465  1.00  0.00     0.002 A 
HETATM   10  C14 UNL     1      22.803  10.723  -4.329  1.00  0.00     0.001 A 
HETATM   11  C15 UNL     1      22.261  10.419  -5.588  1.00  0.00     0.010 A 
HETATM   12  C16 UNL     1      22.152   9.078  -5.954  1.00  0.00    -0.018 A 
HETATM   13  C17 UNL     1      21.533   8.431  -7.164  1.00  0.00     0.045 C 
HETATM   14  C38 UNL     1      21.849   8.768  -8.657  1.00  0.00     0.054 C 
HETATM   15  C39 UNL     1      22.164   7.355  -9.311  1.00  0.00     0.182 C 
HETATM   16  C40 UNL     1      21.293   6.858 -10.425  1.00  0.00     0.241 C 
HETATM   17  O4  UNL     1      20.849   7.654 -11.296  1.00  0.00    -0.271 OA
HETATM   18  N6  UNL     1      21.018   5.449 -10.529  1.00  0.00    -0.346 N 
HETATM   19  H13 UNL     1      23.057   5.934  -5.379  1.00  0.00     0.161 HD
HETATM   20  H36 UNL     1      20.374   5.121 -11.282  1.00  0.00     0.163 HD
ENDROOT
BRANCH  13  21
HETATM   21  C18 UNL     1      19.932   8.273  -6.896  1.00  0.00     0.045 A 
HETATM   22  C19 UNL     1      19.416   8.628  -5.442  1.00  0.00     0.202 A 
HETATM   23  N3  UNL     1      18.847   7.406  -4.900  1.00  0.00    -0.314 N 
HETATM   24  N5  UNL     1      18.377   9.640  -5.606  1.00  0.00    -0.367 N 
HETATM   25  C20 UNL     1      19.025   6.267  -5.767  1.00  0.00     0.182 C 
HETATM   26  C30 UNL     1      18.207   7.304  -3.624  1.00  0.00     0.245 C 
HETATM   27  C21 UNL     1      17.829   5.366  -5.705  1.00  0.00     0.241 C 
HETATM   28  C31 UNL     1      19.283   6.872  -7.141  1.00  0.00     0.054 C 
HETATM   29  O2  UNL     1      17.576   4.582  -6.660  1.00  0.00    -0.271 OA
HETATM   30  N4  UNL     1      17.022   5.320  -4.520  1.00  0.00    -0.346 N 
HETATM   31  C22 UNL     1      17.230   6.185  -3.349  1.00  0.00     0.181 C 
HETATM   32  H18 UNL     1      16.306   4.561  -4.447  1.00  0.00     0.163 HD
HETATM   33  O3  UNL     1      18.460   8.151  -2.723  1.00  0.00    -0.271 OA
HETATM   34  C32 UNL     1      18.297  10.002  -6.963  1.00  0.00     0.036 A 
HETATM   35  H29 UNL     1      17.867  10.112  -4.828  1.00  0.00     0.161 HD
HETATM   36  C33 UNL     1      17.419  10.940  -7.506  1.00  0.00     0.030 A 
HETATM   37  C37 UNL     1      19.163   9.276  -7.740  1.00  0.00    -0.018 A 
HETATM   38  C34 UNL     1      17.431  11.137  -8.894  1.00  0.00     0.002 A 
HETATM   39  C35 UNL     1      18.300  10.387  -9.707  1.00  0.00     0.001 A 
HETATM   40  C36 UNL     1      19.163   9.438  -9.133  1.00  0.00     0.010 A 
BRANCH  31  41
HETATM   41  C23 UNL     1      15.874   6.737  -2.858  1.00  0.00     0.073 C 
BRANCH  41  42
HETATM   42  C24 UNL     1      15.535   6.280  -1.458  1.00  0.00    -0.056 A 
HETATM   43  C25 UNL     1      16.350   5.342  -0.799  1.00  0.00     0.007 A 
HETATM   44  C26 UNL     1      16.006   4.881   0.476  1.00  0.00     0.001 A 
HETATM   45  C27 UNL     1      14.849   5.350   1.103  1.00  0.00     0.000 A 
HETATM   46  C28 UNL     1      14.037   6.289   0.458  1.00  0.00     0.001 A 
HETATM   47  C29 UNL     1      14.378   6.753  -0.816  1.00  0.00     0.007 A 
ENDBRANCH  41  42
ENDBRANCH  31  41
ENDBRANCH  13  21
BRANCH   1  48
HETATM   48  C2  UNL     1      23.002   3.977 -10.445  1.00  0.00     0.073 C 
BRANCH  48  49
HETATM   49  C3  UNL     1      23.594   2.753  -9.797  1.00  0.00    -0.056 A 
HETATM   50  C4  UNL     1      22.845   1.566  -9.713  1.00  0.00     0.007 A 
HETATM   51  C5  UNL     1      23.398   0.424  -9.127  1.00  0.00     0.001 A 
HETATM   52  C6  UNL     1      24.702   0.456  -8.623  1.00  0.00     0.000 A 
HETATM   53  C7  UNL     1      25.456   1.628  -8.713  1.00  0.00     0.001 A 
HETATM   54  C8  UNL     1      24.907   2.773  -9.299  1.00  0.00     0.007 A 
ENDBRANCH  48  49
ENDBRANCH   1  48
TORSDOF 5
ENDMDL
