REMARK  7 active torsions:
REMARK  status: ('A' for Active; 'I' for Inactive)
REMARK    1  A    between atoms: C9_11  and  C10_12 
REMARK    2  A    between atoms: C13_16  and  C14_17 
REMARK    3  A    between atoms: C14_17  and  C15_18 
REMARK    4  A    between atoms: C17_22  and  C18_23 
REMARK    5  A    between atoms: C18_23  and  C19_24 
REMARK    6  A    between atoms: C33_42  and  C34_43 
REMARK    7  A    between atoms: C34_43  and  C35_44 
ROOT
HETATM    1  C10 UNL     1       0.880   1.554   0.037  1.00  0.00    -0.013 A 
HETATM    2  C11 UNL     1       0.902   0.644  -1.049  1.00  0.00     0.050 A 
HETATM    3  N3  UNL     1      -0.120  -0.077  -1.558  1.00  0.00    -0.364 N 
HETATM    4  C12 UNL     1       0.389  -0.809  -2.573  1.00  0.00     0.096 A 
HETATM    5  C13 UNL     1       1.742  -0.552  -2.724  1.00  0.00    -0.028 A 
HETATM    6  C26 UNL     1       2.053   0.385  -1.758  1.00  0.00    -0.001 A 
HETATM    7  C27 UNL     1       3.255   1.025  -1.479  1.00  0.00     0.014 A 
HETATM    8  C28 UNL     1       2.106   2.224   0.307  1.00  0.00     0.011 A 
HETATM    9  C29 UNL     1       3.271   1.957  -0.438  1.00  0.00     0.002 A 
HETATM   10  H7  UNL     1      -1.117  -0.082  -1.262  1.00  0.00     0.165 HD
ENDROOT
BRANCH   1  11
HETATM   11  C9  UNL     1      -0.401   1.825   0.854  1.00  0.00     0.059 A 
HETATM   12  C2  UNL     1      -1.515   2.453  -0.039  1.00  0.00     0.206 A 
HETATM   13  N1  UNL     1      -2.699   1.635   0.175  1.00  0.00    -0.314 N 
HETATM   14  N2  UNL     1      -1.737   3.807   0.471  1.00  0.00    -0.367 N 
HETATM   15  C1  UNL     1      -4.025   2.051  -0.185  1.00  0.00     0.245 C 
HETATM   16  C31 UNL     1      -2.486   0.490   1.047  1.00  0.00     0.183 A 
HETATM   17  C33 UNL     1      -5.202   1.514   0.585  1.00  0.00     0.181 C 
HETATM   18  O4  UNL     1      -4.205   2.857  -1.137  1.00  0.00    -0.271 OA
HETATM   19  N6  UNL     1      -4.778   1.109   1.933  1.00  0.00    -0.346 N 
HETATM   20  C32 UNL     1      -3.483   0.539   2.175  1.00  0.00     0.241 C 
HETATM   21  H28 UNL     1      -5.471   1.147   2.715  1.00  0.00     0.163 HD
HETATM   22  O3  UNL     1      -3.225   0.021   3.294  1.00  0.00    -0.271 OA
HETATM   23  C30 UNL     1      -1.010   0.542   1.478  1.00  0.00     0.058 A 
HETATM   24  C3  UNL     1      -0.989   3.978   1.651  1.00  0.00     0.037 A 
HETATM   25  H2  UNL     1      -2.422   4.497   0.090  1.00  0.00     0.161 HD
HETATM   26  C4  UNL     1      -1.039   5.079   2.506  1.00  0.00     0.030 A 
HETATM   27  C8  UNL     1      -0.228   2.878   1.929  1.00  0.00    -0.015 A 
HETATM   28  C5  UNL     1      -0.278   5.040   3.685  1.00  0.00     0.002 A 
HETATM   29  C6  UNL     1       0.498   3.906   3.989  1.00  0.00     0.001 A 
HETATM   30  C7  UNL     1       0.520   2.809   3.112  1.00  0.00     0.011 A 
BRANCH  17  31
HETATM   31  C34 UNL     1      -5.824   0.324  -0.165  1.00  0.00     0.073 C 
BRANCH  31  32
HETATM   32  C35 UNL     1      -7.084  -0.151   0.510  1.00  0.00    -0.056 A 
HETATM   33  C36 UNL     1      -8.313   0.472   0.234  1.00  0.00     0.007 A 
HETATM   34  C37 UNL     1      -9.479   0.046   0.877  1.00  0.00     0.001 A 
HETATM   35  C38 UNL     1      -9.426  -0.993   1.809  1.00  0.00     0.000 A 
HETATM   36  C39 UNL     1      -8.205  -1.609   2.100  1.00  0.00     0.001 A 
HETATM   37  C40 UNL     1      -7.036  -1.189   1.457  1.00  0.00     0.007 A 
ENDBRANCH  31  32
ENDBRANCH  17  31
ENDBRANCH   1  11
BRANCH   5  38
HETATM   38  C14 UNL     1       2.676  -1.207  -3.704  1.00  0.00     0.075 C 
BRANCH  38  39
HETATM   39  C15 UNL     1       3.681  -2.147  -3.000  1.00  0.00     0.181 C 
HETATM   40  C16 UNL     1       3.047  -3.426  -2.504  1.00  0.00     0.241 C 
HETATM   41  O1  UNL     1       1.837  -3.452  -2.152  1.00  0.00    -0.271 OA
HETATM   42  N4  UNL     1       3.843  -4.607  -2.351  1.00  0.00    -0.346 N 
HETATM   43  C17 UNL     1       5.276  -4.638  -2.653  1.00  0.00     0.180 C 
HETATM   44  H12 UNL     1       3.409  -5.454  -1.918  1.00  0.00     0.163 HD
HETATM   45  C25 UNL     1       5.640  -3.596  -3.680  1.00  0.00     0.241 C 
HETATM   46  N5  UNL     1       4.793  -2.462  -3.901  1.00  0.00    -0.346 N 
HETATM   47  O2  UNL     1       6.702  -3.722  -4.348  1.00  0.00    -0.271 OA
HETATM   48  H21 UNL     1       5.089  -1.763  -4.620  1.00  0.00     0.163 HD
BRANCH  43  49
HETATM   49  C18 UNL     1       6.114  -4.507  -1.364  1.00  0.00     0.073 C 
BRANCH  49  50
HETATM   50  C19 UNL     1       5.893  -3.203  -0.635  1.00  0.00    -0.056 A 
HETATM   51  C20 UNL     1       4.860  -3.084   0.313  1.00  0.00     0.007 A 
HETATM   52  C21 UNL     1       4.629  -1.861   0.953  1.00  0.00     0.001 A 
HETATM   53  C22 UNL     1       5.429  -0.754   0.659  1.00  0.00     0.000 A 
HETATM   54  C23 UNL     1       6.458  -0.864  -0.281  1.00  0.00     0.001 A 
HETATM   55  C24 UNL     1       6.691  -2.083  -0.927  1.00  0.00     0.007 A 
ENDBRANCH  49  50
ENDBRANCH  43  49
ENDBRANCH  38  39
ENDBRANCH   5  38
TORSDOF 7
