MODEL 1
REMARK VINA RESULT:     -12.2      0.000      0.000
REMARK  7 active torsions:
REMARK  status: ('A' for Active; 'I' for Inactive)
REMARK    1  A    between atoms: C9_11  and  C10_12 
REMARK    2  A    between atoms: C13_16  and  C14_17 
REMARK    3  A    between atoms: C14_17  and  C15_18 
REMARK    4  A    between atoms: C17_22  and  C18_23 
REMARK    5  A    between atoms: C18_23  and  C19_24 
REMARK    6  A    between atoms: C33_42  and  C34_43 
REMARK    7  A    between atoms: C34_43  and  C35_44 
ROOT
HETATM    1  C10 UNL     1      19.739   6.490  -4.069  1.00  0.00    -0.013 A 
HETATM    2  C11 UNL     1      18.351   6.426  -3.791  1.00  0.00     0.050 A 
HETATM    3  N3  UNL     1      17.362   7.199  -4.287  1.00  0.00    -0.364 N 
HETATM    4  C12 UNL     1      16.213   6.771  -3.719  1.00  0.00     0.096 A 
HETATM    5  C13 UNL     1      16.463   5.713  -2.861  1.00  0.00    -0.028 A 
HETATM    6  C26 UNL     1      17.825   5.493  -2.927  1.00  0.00    -0.001 A 
HETATM    7  C27 UNL     1      18.613   4.533  -2.302  1.00  0.00     0.014 A 
HETATM    8  C28 UNL     1      20.541   5.494  -3.445  1.00  0.00     0.011 A 
HETATM    9  C29 UNL     1      19.983   4.537  -2.575  1.00  0.00     0.002 A 
HETATM   10  H7  UNL     1      17.431   7.971  -4.981  1.00  0.00     0.165 HD
ENDROOT
BRANCH   1  11
HETATM   11  C9  UNL     1      20.338   7.553  -5.014  1.00  0.00     0.059 A 
HETATM   12  C2  UNL     1      21.464   6.943  -5.905  1.00  0.00     0.206 A 
HETATM   13  N1  UNL     1      21.121   7.303  -7.273  1.00  0.00    -0.314 N 
HETATM   14  N2  UNL     1      22.708   7.602  -5.505  1.00  0.00    -0.367 N 
HETATM   15  C1  UNL     1      22.050   7.236  -8.365  1.00  0.00     0.245 C 
HETATM   16  C31 UNL     1      19.860   8.017  -7.406  1.00  0.00     0.183 A 
HETATM   17  C33 UNL     1      21.877   8.164  -9.539  1.00  0.00     0.181 C 
HETATM   18  O4  UNL     1      23.001   6.409  -8.346  1.00  0.00    -0.271 OA
HETATM   19  N6  UNL     1      21.143   9.367  -9.124  1.00  0.00    -0.346 N 
HETATM   20  C32 UNL     1      20.103   9.312  -8.136  1.00  0.00     0.241 C 
HETATM   21  H28 UNL     1      21.315  10.266  -9.631  1.00  0.00     0.163 HD
HETATM   22  O3  UNL     1      19.362  10.313  -7.949  1.00  0.00    -0.271 OA
HETATM   23  C30 UNL     1      19.294   8.166  -5.984  1.00  0.00     0.058 A 
HETATM   24  C3  UNL     1      22.406   8.631  -4.593  1.00  0.00     0.037 A 
HETATM   25  H2  UNL     1      23.653   7.418  -5.911  1.00  0.00     0.161 HD
HETATM   26  C4  UNL     1      23.302   9.574  -4.088  1.00  0.00     0.030 A 
HETATM   27  C8  UNL     1      21.074   8.665  -4.294  1.00  0.00    -0.015 A 
HETATM   28  C5  UNL     1      22.804  10.581  -3.247  1.00  0.00     0.002 A 
HETATM   29  C6  UNL     1      21.431  10.634  -2.944  1.00  0.00     0.001 A 
HETATM   30  C7  UNL     1      20.552   9.676  -3.476  1.00  0.00     0.011 A 
BRANCH  17  31
HETATM   31  C34 UNL     1      21.133   7.443 -10.676  1.00  0.00     0.073 C 
BRANCH  31  32
HETATM   32  C35 UNL     1      21.861   7.589 -11.986  1.00  0.00    -0.056 A 
HETATM   33  C36 UNL     1      22.683   8.705 -12.219  1.00  0.00     0.007 A 
HETATM   34  C37 UNL     1      23.341   8.852 -13.444  1.00  0.00     0.001 A 
HETATM   35  C38 UNL     1      23.173   7.897 -14.449  1.00  0.00     0.000 A 
HETATM   36  C39 UNL     1      22.346   6.791 -14.231  1.00  0.00     0.001 A 
HETATM   37  C40 UNL     1      21.688   6.637 -13.006  1.00  0.00     0.007 A 
ENDBRANCH  31  32
ENDBRANCH  17  31
ENDBRANCH   1  11
BRANCH   5  38
HETATM   38  C14 UNL     1      15.457   4.998  -2.000  1.00  0.00     0.075 C 
BRANCH  38  39
HETATM   39  C15 UNL     1      14.901   5.913  -0.886  1.00  0.00     0.181 C 
HETATM   40  C16 UNL     1      14.399   5.145   0.315  1.00  0.00     0.241 C 
HETATM   41  O1  UNL     1      13.926   3.983   0.186  1.00  0.00    -0.271 OA
HETATM   42  N4  UNL     1      14.380   5.766   1.606  1.00  0.00    -0.346 N 
HETATM   43  C17 UNL     1      14.828   7.143   1.826  1.00  0.00     0.180 C 
HETATM   44  H12 UNL     1      13.942   5.253   2.404  1.00  0.00     0.163 HD
HETATM   45  C25 UNL     1      15.841   7.559   0.790  1.00  0.00     0.241 C 
HETATM   46  N5  UNL     1      15.924   6.875  -0.466  1.00  0.00    -0.346 N 
HETATM   47  O2  UNL     1      16.619   8.522   1.029  1.00  0.00    -0.271 OA
HETATM   48  H21 UNL     1      16.639   7.203  -1.155  1.00  0.00     0.163 HD
BRANCH  43  49
HETATM   49  C18 UNL     1      13.627   8.109   1.893  1.00  0.00     0.073 C 
BRANCH  49  50
HETATM   50  C19 UNL     1      13.625   8.979   3.128  1.00  0.00    -0.056 A 
HETATM   51  C20 UNL     1      14.757   9.031   3.963  1.00  0.00     0.007 A 
HETATM   52  C21 UNL     1      14.735   9.803   5.130  1.00  0.00     0.001 A 
HETATM   53  C22 UNL     1      13.592  10.531   5.468  1.00  0.00     0.000 A 
HETATM   54  C23 UNL     1      12.464  10.485   4.643  1.00  0.00     0.001 A 
HETATM   55  C24 UNL     1      12.478   9.713   3.477  1.00  0.00     0.007 A 
ENDBRANCH  49  50
ENDBRANCH  43  49
ENDBRANCH  38  39
ENDBRANCH   5  38
TORSDOF 7
ENDMDL
MODEL 2
REMARK VINA RESULT:     -12.2      1.151      2.001
REMARK  7 active torsions:
REMARK  status: ('A' for Active; 'I' for Inactive)
REMARK    1  A    between atoms: C9_11  and  C10_12 
REMARK    2  A    between atoms: C13_16  and  C14_17 
REMARK    3  A    between atoms: C14_17  and  C15_18 
REMARK    4  A    between atoms: C17_22  and  C18_23 
REMARK    5  A    between atoms: C18_23  and  C19_24 
REMARK    6  A    between atoms: C33_42  and  C34_43 
REMARK    7  A    between atoms: C34_43  and  C35_44 
ROOT
HETATM    1  C10 UNL     1      18.019   8.490  -5.165  1.00  0.00    -0.013 A 
HETATM    2  C11 UNL     1      18.026   7.551  -4.104  1.00  0.00     0.050 A 
HETATM    3  N3  UNL     1      19.090   7.020  -3.462  1.00  0.00    -0.364 N 
HETATM    4  C12 UNL     1      18.599   6.164  -2.539  1.00  0.00     0.096 A 
HETATM    5  C13 UNL     1      17.214   6.150  -2.580  1.00  0.00    -0.028 A 
HETATM    6  C26 UNL     1      16.862   7.047  -3.570  1.00  0.00    -0.001 A 
HETATM    7  C27 UNL     1      15.608   7.455  -4.010  1.00  0.00     0.014 A 
HETATM    8  C28 UNL     1      16.735   8.922  -5.599  1.00  0.00     0.011 A 
HETATM    9  C29 UNL     1      15.553   8.407  -5.031  1.00  0.00     0.002 A 
HETATM   10  H7  UNL     1      20.099   7.219  -3.613  1.00  0.00     0.165 HD
ENDROOT
BRANCH   1  11
HETATM   11  C9  UNL     1      19.322   9.035  -5.787  1.00  0.00     0.059 A 
HETATM   12  C2  UNL     1      19.980   7.979  -6.727  1.00  0.00     0.206 A 
HETATM   13  N1  UNL     1      20.219   8.667  -7.987  1.00  0.00    -0.314 N 
HETATM   14  N2  UNL     1      21.252   7.608  -6.105  1.00  0.00    -0.367 N 
HETATM   15  C1  UNL     1      21.103   8.174  -9.004  1.00  0.00     0.245 C 
HETATM   16  C31 UNL     1      19.729  10.037  -8.022  1.00  0.00     0.183 A 
HETATM   17  C33 UNL     1      21.783   9.149  -9.928  1.00  0.00     0.181 C 
HETATM   18  O4  UNL     1      21.310   6.937  -9.125  1.00  0.00    -0.271 OA
HETATM   19  N6  UNL     1      21.885  10.466  -9.282  1.00  0.00    -0.346 N 
HETATM   20  C32 UNL     1      20.861  10.954  -8.403  1.00  0.00     0.241 C 
HETATM   21  H28 UNL     1      22.674  11.099  -9.546  1.00  0.00     0.163 HD
HETATM   22  O3  UNL     1      20.879  12.156  -8.026  1.00  0.00    -0.271 OA
HETATM   23  C30 UNL     1      19.104  10.309  -6.643  1.00  0.00     0.058 A 
HETATM   24  C3  UNL     1      21.475   8.441  -4.992  1.00  0.00     0.037 A 
HETATM   25  H2  UNL     1      21.937   6.917  -6.483  1.00  0.00     0.161 HD
HETATM   26  C4  UNL     1      22.636   8.493  -4.221  1.00  0.00     0.030 A 
HETATM   27  C8  UNL     1      20.423   9.286  -4.777  1.00  0.00    -0.015 A 
HETATM   28  C5  UNL     1      22.710   9.448  -3.195  1.00  0.00     0.002 A 
HETATM   29  C6  UNL     1      21.638  10.332  -2.973  1.00  0.00     0.001 A 
HETATM   30  C7  UNL     1      20.486  10.262  -3.773  1.00  0.00     0.011 A 
BRANCH  17  31
HETATM   31  C34 UNL     1      21.001   9.256 -11.249  1.00  0.00     0.073 C 
BRANCH  31  32
HETATM   32  C35 UNL     1      21.742   8.590 -12.379  1.00  0.00    -0.056 A 
HETATM   33  C36 UNL     1      22.845   9.225 -12.974  1.00  0.00     0.007 A 
HETATM   34  C37 UNL     1      23.518   8.617 -14.037  1.00  0.00     0.001 A 
HETATM   35  C38 UNL     1      23.089   7.380 -14.524  1.00  0.00     0.000 A 
HETATM   36  C39 UNL     1      21.983   6.748 -13.947  1.00  0.00     0.001 A 
HETATM   37  C40 UNL     1      21.308   7.350 -12.880  1.00  0.00     0.007 A 
ENDBRANCH  31  32
ENDBRANCH  17  31
ENDBRANCH   1  11
BRANCH   5  38
HETATM   38  C14 UNL     1      16.301   5.290  -1.752  1.00  0.00     0.075 C 
BRANCH  38  39
HETATM   39  C15 UNL     1      15.587   6.105  -0.649  1.00  0.00     0.181 C 
HETATM   40  C16 UNL     1      15.231   5.275   0.563  1.00  0.00     0.241 C 
HETATM   41  O1  UNL     1      14.977   4.045   0.451  1.00  0.00    -0.271 OA
HETATM   42  N4  UNL     1      15.098   5.900   1.845  1.00  0.00    -0.346 N 
HETATM   43  C17 UNL     1      15.289   7.339   2.045  1.00  0.00     0.180 C 
HETATM   44  H12 UNL     1      14.759   5.328   2.651  1.00  0.00     0.163 HD
HETATM   45  C25 UNL     1      16.210   7.918   1.001  1.00  0.00     0.241 C 
HETATM   46  N5  UNL     1      16.418   7.242  -0.245  1.00  0.00    -0.346 N 
HETATM   47  O2  UNL     1      16.800   9.009   1.226  1.00  0.00    -0.271 OA
HETATM   48  H21 UNL     1      17.062   7.684  -0.940  1.00  0.00     0.163 HD
BRANCH  43  49
HETATM   49  C18 UNL     1      13.932   8.072   2.100  1.00  0.00     0.073 C 
BRANCH  49  50
HETATM   50  C19 UNL     1      13.773   8.949   3.319  1.00  0.00    -0.056 A 
HETATM   51  C20 UNL     1      12.598   9.699   3.508  1.00  0.00     0.007 A 
HETATM   52  C21 UNL     1      12.473  10.545   4.616  1.00  0.00     0.001 A 
HETATM   53  C22 UNL     1      13.513  10.643   5.544  1.00  0.00     0.000 A 
HETATM   54  C23 UNL     1      14.684   9.901   5.364  1.00  0.00     0.001 A 
HETATM   55  C24 UNL     1      14.816   9.056   4.256  1.00  0.00     0.007 A 
ENDBRANCH  49  50
ENDBRANCH  43  49
ENDBRANCH  38  39
ENDBRANCH   5  38
TORSDOF 7
ENDMDL
MODEL 3
REMARK VINA RESULT:     -11.8      1.950      2.746
REMARK  7 active torsions:
REMARK  status: ('A' for Active; 'I' for Inactive)
REMARK    1  A    between atoms: C9_11  and  C10_12 
REMARK    2  A    between atoms: C13_16  and  C14_17 
REMARK    3  A    between atoms: C14_17  and  C15_18 
REMARK    4  A    between atoms: C17_22  and  C18_23 
REMARK    5  A    between atoms: C18_23  and  C19_24 
REMARK    6  A    between atoms: C33_42  and  C34_43 
REMARK    7  A    between atoms: C34_43  and  C35_44 
ROOT
HETATM    1  C10 UNL     1      18.019   7.784  -4.886  1.00  0.00    -0.013 A 
HETATM    2  C11 UNL     1      17.637   6.895  -3.850  1.00  0.00     0.050 A 
HETATM    3  N3  UNL     1      18.422   6.080  -3.114  1.00  0.00    -0.364 N 
HETATM    4  C12 UNL     1      17.606   5.417  -2.265  1.00  0.00     0.096 A 
HETATM    5  C13 UNL     1      16.291   5.814  -2.450  1.00  0.00    -0.028 A 
HETATM    6  C26 UNL     1      16.326   6.765  -3.451  1.00  0.00    -0.001 A 
HETATM    7  C27 UNL     1      15.302   7.521  -4.010  1.00  0.00     0.014 A 
HETATM    8  C28 UNL     1      16.973   8.572  -5.442  1.00  0.00     0.011 A 
HETATM    9  C29 UNL     1      15.640   8.436  -5.011  1.00  0.00     0.002 A 
HETATM   10  H7  UNL     1      19.455   5.969  -3.155  1.00  0.00     0.165 HD
ENDROOT
BRANCH   1  11
HETATM   11  C9  UNL     1      19.483   7.911  -5.358  1.00  0.00     0.059 A 
HETATM   12  C2  UNL     1      20.105   6.510  -5.644  1.00  0.00     0.206 A 
HETATM   13  N1  UNL     1      20.671   6.596  -6.982  1.00  0.00    -0.314 N 
HETATM   14  N2  UNL     1      21.170   6.322  -4.657  1.00  0.00    -0.367 N 
HETATM   15  C1  UNL     1      21.621   5.654  -7.503  1.00  0.00     0.245 C 
HETATM   16  C31 UNL     1      20.432   7.865  -7.652  1.00  0.00     0.183 A 
HETATM   17  C33 UNL     1      22.604   6.101  -8.552  1.00  0.00     0.181 C 
HETATM   18  O4  UNL     1      21.634   4.464  -7.088  1.00  0.00    -0.271 OA
HETATM   19  N6  UNL     1      22.815   7.553  -8.458  1.00  0.00    -0.346 N 
HETATM   20  C32 UNL     1      21.752   8.445  -8.091  1.00  0.00     0.241 C 
HETATM   21  H28 UNL     1      23.732   7.952  -8.760  1.00  0.00     0.163 HD
HETATM   22  O3  UNL     1      21.907   9.689  -8.212  1.00  0.00    -0.271 OA
HETATM   23  C30 UNL     1      19.634   8.733  -6.665  1.00  0.00     0.058 A 
HETATM   24  C3  UNL     1      21.335   7.518  -3.933  1.00  0.00     0.037 A 
HETATM   25  H2  UNL     1      21.784   5.482  -4.575  1.00  0.00     0.161 HD
HETATM   26  C4  UNL     1      22.338   7.784  -3.000  1.00  0.00     0.030 A 
HETATM   27  C8  UNL     1      20.419   8.462  -4.302  1.00  0.00    -0.015 A 
HETATM   28  C5  UNL     1      22.394   9.067  -2.433  1.00  0.00     0.002 A 
HETATM   29  C6  UNL     1      21.465  10.052  -2.817  1.00  0.00     0.001 A 
HETATM   30  C7  UNL     1      20.473   9.755  -3.766  1.00  0.00     0.011 A 
BRANCH  17  31
HETATM   31  C34 UNL     1      22.091   5.720  -9.951  1.00  0.00     0.073 C 
BRANCH  31  32
HETATM   32  C35 UNL     1      22.579   4.355 -10.360  1.00  0.00    -0.056 A 
HETATM   33  C36 UNL     1      23.688   3.777  -9.719  1.00  0.00     0.007 A 
HETATM   34  C37 UNL     1      24.154   2.520 -10.114  1.00  0.00     0.001 A 
HETATM   35  C38 UNL     1      23.528   1.836 -11.158  1.00  0.00     0.000 A 
HETATM   36  C39 UNL     1      22.433   2.409 -11.811  1.00  0.00     0.001 A 
HETATM   37  C40 UNL     1      21.960   3.666 -11.418  1.00  0.00     0.007 A 
ENDBRANCH  31  32
ENDBRANCH  17  31
ENDBRANCH   1  11
BRANCH   5  38
HETATM   38  C14 UNL     1      15.082   5.271  -1.739  1.00  0.00     0.075 C 
BRANCH  38  39
HETATM   39  C15 UNL     1      14.615   6.208  -0.602  1.00  0.00     0.181 C 
HETATM   40  C16 UNL     1      14.117   5.461   0.614  1.00  0.00     0.241 C 
HETATM   41  O1  UNL     1      13.581   4.326   0.499  1.00  0.00    -0.271 OA
HETATM   42  N4  UNL     1      14.177   6.076   1.906  1.00  0.00    -0.346 N 
HETATM   43  C17 UNL     1      14.704   7.427   2.114  1.00  0.00     0.180 C 
HETATM   44  H12 UNL     1      13.742   5.582   2.719  1.00  0.00     0.163 HD
HETATM   45  C25 UNL     1      15.698   7.796   1.043  1.00  0.00     0.241 C 
HETATM   46  N5  UNL     1      15.701   7.114  -0.217  1.00  0.00    -0.346 N 
HETATM   47  O2  UNL     1      16.533   8.716   1.257  1.00  0.00    -0.271 OA
HETATM   48  H21 UNL     1      16.406   7.408  -0.931  1.00  0.00     0.163 HD
BRANCH  43  49
HETATM   49  C18 UNL     1      13.557   8.454   2.227  1.00  0.00     0.073 C 
BRANCH  49  50
HETATM   50  C19 UNL     1      13.585   9.243   3.514  1.00  0.00    -0.056 A 
HETATM   51  C20 UNL     1      12.483  10.037   3.886  1.00  0.00     0.007 A 
HETATM   52  C21 UNL     1      12.530  10.803   5.056  1.00  0.00     0.001 A 
HETATM   53  C22 UNL     1      13.669  10.777   5.866  1.00  0.00     0.000 A 
HETATM   54  C23 UNL     1      14.767   9.991   5.504  1.00  0.00     0.001 A 
HETATM   55  C24 UNL     1      14.727   9.226   4.333  1.00  0.00     0.007 A 
ENDBRANCH  49  50
ENDBRANCH  43  49
ENDBRANCH  38  39
ENDBRANCH   5  38
TORSDOF 7
ENDMDL
MODEL 4
REMARK VINA RESULT:     -11.4      3.135     11.486
REMARK  7 active torsions:
REMARK  status: ('A' for Active; 'I' for Inactive)
REMARK    1  A    between atoms: C9_11  and  C10_12 
REMARK    2  A    between atoms: C13_16  and  C14_17 
REMARK    3  A    between atoms: C14_17  and  C15_18 
REMARK    4  A    between atoms: C17_22  and  C18_23 
REMARK    5  A    between atoms: C18_23  and  C19_24 
REMARK    6  A    between atoms: C33_42  and  C34_43 
REMARK    7  A    between atoms: C34_43  and  C35_44 
ROOT
HETATM    1  C10 UNL     1      18.585   5.992  -5.549  1.00  0.00    -0.013 A 
HETATM    2  C11 UNL     1      19.841   6.646  -5.597  1.00  0.00     0.050 A 
HETATM    3  N3  UNL     1      20.862   6.565  -4.716  1.00  0.00    -0.364 N 
HETATM    4  C12 UNL     1      21.838   7.376  -5.178  1.00  0.00     0.096 A 
HETATM    5  C13 UNL     1      21.449   7.975  -6.365  1.00  0.00    -0.028 A 
HETATM    6  C26 UNL     1      20.183   7.492  -6.628  1.00  0.00    -0.001 A 
HETATM    7  C27 UNL     1      19.335   7.728  -7.704  1.00  0.00     0.014 A 
HETATM    8  C28 UNL     1      17.727   6.219  -6.662  1.00  0.00     0.011 A 
HETATM    9  C29 UNL     1      18.099   7.077  -7.716  1.00  0.00     0.002 A 
HETATM   10  H7  UNL     1      20.924   5.991  -3.851  1.00  0.00     0.165 HD
ENDROOT
BRANCH   1  11
HETATM   11  C9  UNL     1      18.186   5.067  -4.380  1.00  0.00     0.059 A 
HETATM   12  C2  UNL     1      18.351   5.792  -3.009  1.00  0.00     0.206 A 
HETATM   13  N1  UNL     1      17.081   5.623  -2.319  1.00  0.00    -0.314 N 
HETATM   14  N2  UNL     1      19.413   5.083  -2.294  1.00  0.00    -0.367 N 
HETATM   15  C1  UNL     1      16.911   5.837  -0.909  1.00  0.00     0.245 C 
HETATM   16  C31 UNL     1      16.063   4.936  -3.099  1.00  0.00     0.183 A 
HETATM   17  C33 UNL     1      15.839   5.079  -0.172  1.00  0.00     0.181 C 
HETATM   18  O4  UNL     1      17.648   6.653  -0.294  1.00  0.00    -0.271 OA
HETATM   19  N6  UNL     1      15.527   3.831  -0.882  1.00  0.00    -0.346 N 
HETATM   20  C32 UNL     1      15.558   3.753  -2.315  1.00  0.00     0.241 C 
HETATM   21  H28 UNL     1      15.179   3.010  -0.336  1.00  0.00     0.163 HD
HETATM   22  O3  UNL     1      15.095   2.737  -2.898  1.00  0.00    -0.271 OA
HETATM   23  C30 UNL     1      16.710   4.595  -4.452  1.00  0.00     0.058 A 
HETATM   24  C3  UNL     1      19.774   3.939  -3.031  1.00  0.00     0.037 A 
HETATM   25  H2  UNL     1      19.770   5.319  -1.341  1.00  0.00     0.161 HD
HETATM   26  C4  UNL     1      20.650   2.935  -2.618  1.00  0.00     0.030 A 
HETATM   27  C8  UNL     1      19.095   3.867  -4.214  1.00  0.00    -0.015 A 
HETATM   28  C5  UNL     1      20.829   1.823  -3.456  1.00  0.00     0.002 A 
HETATM   29  C6  UNL     1      20.123   1.731  -4.670  1.00  0.00     0.001 A 
HETATM   30  C7  UNL     1      19.240   2.754  -5.053  1.00  0.00     0.011 A 
BRANCH  17  31
HETATM   31  C34 UNL     1      14.579   5.950  -0.031  1.00  0.00     0.073 C 
BRANCH  31  32
HETATM   32  C35 UNL     1      14.638   6.803   1.209  1.00  0.00    -0.056 A 
HETATM   33  C36 UNL     1      14.152   8.121   1.185  1.00  0.00     0.007 A 
HETATM   34  C37 UNL     1      14.227   8.921   2.330  1.00  0.00     0.001 A 
HETATM   35  C38 UNL     1      14.799   8.417   3.500  1.00  0.00     0.000 A 
HETATM   36  C39 UNL     1      15.298   7.112   3.528  1.00  0.00     0.001 A 
HETATM   37  C40 UNL     1      15.223   6.306   2.387  1.00  0.00     0.007 A 
ENDBRANCH  31  32
ENDBRANCH  17  31
ENDBRANCH   1  11
BRANCH   5  38
HETATM   38  C14 UNL     1      22.232   8.984  -7.159  1.00  0.00     0.075 C 
BRANCH  38  39
HETATM   39  C15 UNL     1      21.312  10.039  -7.815  1.00  0.00     0.181 C 
HETATM   40  C16 UNL     1      21.229  11.324  -7.024  1.00  0.00     0.241 C 
HETATM   41  O1  UNL     1      21.356  11.320  -5.770  1.00  0.00    -0.271 OA
HETATM   42  N4  UNL     1      20.920  12.555  -7.689  1.00  0.00    -0.346 N 
HETATM   43  C17 UNL     1      20.670  12.632  -9.130  1.00  0.00     0.180 C 
HETATM   44  H12 UNL     1      20.774  13.415  -7.113  1.00  0.00     0.163 HD
HETATM   45  C25 UNL     1      21.369  11.518  -9.867  1.00  0.00     0.241 C 
HETATM   46  N5  UNL     1      21.764  10.325  -9.179  1.00  0.00    -0.346 N 
HETATM   47  O2  UNL     1      21.604  11.635 -11.100  1.00  0.00    -0.271 OA
HETATM   48  H21 UNL     1      22.241   9.577  -9.732  1.00  0.00     0.163 HD
BRANCH  43  49
HETATM   49  C18 UNL     1      19.156  12.670  -9.426  1.00  0.00     0.073 C 
BRANCH  49  50
HETATM   50  C19 UNL     1      18.755  13.784 -10.363  1.00  0.00    -0.056 A 
HETATM   51  C20 UNL     1      18.341  13.496 -11.676  1.00  0.00     0.007 A 
HETATM   52  C21 UNL     1      18.014  14.534 -12.556  1.00  0.00     0.001 A 
HETATM   53  C22 UNL     1      18.090  15.863 -12.131  1.00  0.00     0.000 A 
HETATM   54  C23 UNL     1      18.500  16.158 -10.828  1.00  0.00     0.001 A 
HETATM   55  C24 UNL     1      18.832  15.125  -9.945  1.00  0.00     0.007 A 
ENDBRANCH  49  50
ENDBRANCH  43  49
ENDBRANCH  38  39
ENDBRANCH   5  38
TORSDOF 7
ENDMDL
MODEL 5
REMARK VINA RESULT:     -11.4      5.932     13.763
REMARK  7 active torsions:
REMARK  status: ('A' for Active; 'I' for Inactive)
REMARK    1  A    between atoms: C9_11  and  C10_12 
REMARK    2  A    between atoms: C13_16  and  C14_17 
REMARK    3  A    between atoms: C14_17  and  C15_18 
REMARK    4  A    between atoms: C17_22  and  C18_23 
REMARK    5  A    between atoms: C18_23  and  C19_24 
REMARK    6  A    between atoms: C33_42  and  C34_43 
REMARK    7  A    between atoms: C34_43  and  C35_44 
ROOT
HETATM    1  C10 UNL     1      15.010  10.231   6.281  1.00  0.00    -0.013 A 
HETATM    2  C11 UNL     1      14.992   9.197   5.312  1.00  0.00     0.050 A 
HETATM    3  N3  UNL     1      15.871   8.185   5.151  1.00  0.00    -0.364 N 
HETATM    4  C12 UNL     1      15.446   7.466   4.089  1.00  0.00     0.096 A 
HETATM    5  C13 UNL     1      14.284   8.012   3.569  1.00  0.00    -0.028 A 
HETATM    6  C26 UNL     1      13.998   9.105   4.365  1.00  0.00    -0.001 A 
HETATM    7  C27 UNL     1      12.930   9.994   4.321  1.00  0.00     0.014 A 
HETATM    8  C28 UNL     1      13.905  11.128   6.248  1.00  0.00     0.011 A 
HETATM    9  C29 UNL     1      12.889  11.010   5.281  1.00  0.00     0.002 A 
HETATM   10  H7  UNL     1      16.712   7.964   5.722  1.00  0.00     0.165 HD
ENDROOT
BRANCH   1  11
HETATM   11  C9  UNL     1      16.139  10.357   7.325  1.00  0.00     0.059 A 
HETATM   12  C2  UNL     1      17.495   9.840   6.753  1.00  0.00     0.206 A 
HETATM   13  N1  UNL     1      18.455  10.906   6.993  1.00  0.00    -0.314 N 
HETATM   14  N2  UNL     1      17.848   8.655   7.536  1.00  0.00    -0.367 N 
HETATM   15  C1  UNL     1      19.878  10.720   6.931  1.00  0.00     0.245 C 
HETATM   16  C31 UNL     1      17.884  12.103   7.591  1.00  0.00     0.183 A 
HETATM   17  C33 UNL     1      20.774  11.598   7.762  1.00  0.00     0.181 C 
HETATM   18  O4  UNL     1      20.373   9.831   6.187  1.00  0.00    -0.271 OA
HETATM   19  N6  UNL     1      20.037  12.110   8.927  1.00  0.00    -0.346 N 
HETATM   20  C32 UNL     1      18.641  12.433   8.850  1.00  0.00     0.241 C 
HETATM   21  H28 UNL     1      20.564  12.335   9.801  1.00  0.00     0.163 HD
HETATM   22  O3  UNL     1      18.088  13.053   9.798  1.00  0.00    -0.271 OA
HETATM   23  C30 UNL     1      16.385  11.818   7.786  1.00  0.00     0.058 A 
HETATM   24  C3  UNL     1      16.930   8.518   8.594  1.00  0.00     0.037 A 
HETATM   25  H2  UNL     1      18.702   8.070   7.404  1.00  0.00     0.161 HD
HETATM   26  C4  UNL     1      17.007   7.595   9.638  1.00  0.00     0.030 A 
HETATM   27  C8  UNL     1      15.950   9.469   8.538  1.00  0.00    -0.015 A 
HETATM   28  C5  UNL     1      16.040   7.659  10.654  1.00  0.00     0.002 A 
HETATM   29  C6  UNL     1      15.035   8.643  10.613  1.00  0.00     0.001 A 
HETATM   30  C7  UNL     1      14.990   9.564   9.554  1.00  0.00     0.011 A 
BRANCH  17  31
HETATM   31  C34 UNL     1      21.311  12.760   6.910  1.00  0.00     0.073 C 
BRANCH  31  32
HETATM   32  C35 UNL     1      22.320  13.578   7.672  1.00  0.00    -0.056 A 
HETATM   33  C36 UNL     1      22.319  14.980   7.568  1.00  0.00     0.007 A 
HETATM   34  C37 UNL     1      23.270  15.738   8.258  1.00  0.00     0.001 A 
HETATM   35  C38 UNL     1      24.236  15.105   9.044  1.00  0.00     0.000 A 
HETATM   36  C39 UNL     1      24.253  13.710   9.142  1.00  0.00     0.001 A 
HETATM   37  C40 UNL     1      23.302  12.947   8.456  1.00  0.00     0.007 A 
ENDBRANCH  31  32
ENDBRANCH  17  31
ENDBRANCH   1  11
BRANCH   5  38
HETATM   38  C14 UNL     1      13.534   7.537   2.356  1.00  0.00     0.075 C 
BRANCH  38  39
HETATM   39  C15 UNL     1      14.449   6.760   1.382  1.00  0.00     0.181 C 
HETATM   40  C16 UNL     1      14.188   5.272   1.384  1.00  0.00     0.241 C 
HETATM   41  O1  UNL     1      13.769   4.692   2.422  1.00  0.00    -0.271 OA
HETATM   42  N4  UNL     1      14.494   4.490   0.224  1.00  0.00    -0.346 N 
HETATM   43  C17 UNL     1      15.066   5.072  -0.993  1.00  0.00     0.180 C 
HETATM   44  H12 UNL     1      14.396   3.450   0.277  1.00  0.00     0.163 HD
HETATM   45  C25 UNL     1      14.700   6.528  -1.125  1.00  0.00     0.241 C 
HETATM   46  N5  UNL     1      14.301   7.288   0.022  1.00  0.00    -0.346 N 
HETATM   47  O2  UNL     1      14.751   7.085  -2.255  1.00  0.00    -0.271 OA
HETATM   48  H21 UNL     1      14.061   8.296  -0.117  1.00  0.00     0.163 HD
BRANCH  43  49
HETATM   49  C18 UNL     1      16.592   4.844  -1.048  1.00  0.00     0.073 C 
BRANCH  49  50
HETATM   50  C19 UNL     1      17.093   4.474  -2.424  1.00  0.00    -0.056 A 
HETATM   51  C20 UNL     1      18.467   4.273  -2.650  1.00  0.00     0.007 A 
HETATM   52  C21 UNL     1      18.933   3.975  -3.935  1.00  0.00     0.001 A 
HETATM   53  C22 UNL     1      18.034   3.869  -4.999  1.00  0.00     0.000 A 
HETATM   54  C23 UNL     1      16.667   4.066  -4.783  1.00  0.00     0.001 A 
HETATM   55  C24 UNL     1      16.196   4.368  -3.501  1.00  0.00     0.007 A 
ENDBRANCH  49  50
ENDBRANCH  43  49
ENDBRANCH  38  39
ENDBRANCH   5  38
TORSDOF 7
ENDMDL
MODEL 6
REMARK VINA RESULT:     -11.3      5.524     11.864
REMARK  7 active torsions:
REMARK  status: ('A' for Active; 'I' for Inactive)
REMARK    1  A    between atoms: C9_11  and  C10_12 
REMARK    2  A    between atoms: C13_16  and  C14_17 
REMARK    3  A    between atoms: C14_17  and  C15_18 
REMARK    4  A    between atoms: C17_22  and  C18_23 
REMARK    5  A    between atoms: C18_23  and  C19_24 
REMARK    6  A    between atoms: C33_42  and  C34_43 
REMARK    7  A    between atoms: C34_43  and  C35_44 
ROOT
HETATM    1  C10 UNL     1      16.607   6.618  -4.603  1.00  0.00    -0.013 A 
HETATM    2  C11 UNL     1      16.410   5.933  -5.828  1.00  0.00     0.050 A 
HETATM    3  N3  UNL     1      16.394   4.601  -6.049  1.00  0.00    -0.364 N 
HETATM    4  C12 UNL     1      16.188   4.430  -7.373  1.00  0.00     0.096 A 
HETATM    5  C13 UNL     1      16.061   5.657  -8.006  1.00  0.00    -0.028 A 
HETATM    6  C26 UNL     1      16.189   6.604  -7.009  1.00  0.00    -0.001 A 
HETATM    7  C27 UNL     1      16.109   7.991  -7.070  1.00  0.00     0.014 A 
HETATM    8  C28 UNL     1      16.502   8.036  -4.664  1.00  0.00     0.011 A 
HETATM    9  C29 UNL     1      16.262   8.705  -5.879  1.00  0.00     0.002 A 
HETATM   10  H7  UNL     1      16.502   3.831  -5.359  1.00  0.00     0.165 HD
ENDROOT
BRANCH   1  11
HETATM   11  C9  UNL     1      16.884   5.871  -3.281  1.00  0.00     0.059 A 
HETATM   12  C2  UNL     1      17.060   6.870  -2.097  1.00  0.00     0.206 A 
HETATM   13  N1  UNL     1      16.155   6.410  -1.055  1.00  0.00    -0.314 N 
HETATM   14  N2  UNL     1      18.449   6.742  -1.653  1.00  0.00    -0.367 N 
HETATM   15  C1  UNL     1      16.242   6.833   0.314  1.00  0.00     0.245 C 
HETATM   16  C31 UNL     1      15.340   5.266  -1.433  1.00  0.00     0.183 A 
HETATM   17  C33 UNL     1      15.757   5.915   1.403  1.00  0.00     0.181 C 
HETATM   18  O4  UNL     1      16.719   7.963   0.604  1.00  0.00    -0.271 OA
HETATM   19  N6  UNL     1      15.807   4.520   0.943  1.00  0.00    -0.346 N 
HETATM   20  C32 UNL     1      15.537   4.167  -0.422  1.00  0.00     0.241 C 
HETATM   21  H28 UNL     1      15.947   3.759   1.647  1.00  0.00     0.163 HD
HETATM   22  O3  UNL     1      15.391   2.957  -0.740  1.00  0.00    -0.271 OA
HETATM   23  C30 UNL     1      15.740   4.905  -2.874  1.00  0.00     0.058 A 
HETATM   24  C3  UNL     1      19.052   5.674  -2.344  1.00  0.00     0.037 A 
HETATM   25  H2  UNL     1      18.892   7.277  -0.873  1.00  0.00     0.161 HD
HETATM   26  C4  UNL     1      20.322   5.149  -2.104  1.00  0.00     0.030 A 
HETATM   27  C8  UNL     1      18.204   5.128  -3.266  1.00  0.00    -0.015 A 
HETATM   28  C5  UNL     1      20.727   4.025  -2.841  1.00  0.00     0.002 A 
HETATM   29  C6  UNL     1      19.856   3.445  -3.783  1.00  0.00     0.001 A 
HETATM   30  C7  UNL     1      18.579   3.991  -3.995  1.00  0.00     0.011 A 
BRANCH  17  31
HETATM   31  C34 UNL     1      14.324   6.296   1.815  1.00  0.00     0.073 C 
BRANCH  31  32
HETATM   32  C35 UNL     1      14.323   7.424   2.813  1.00  0.00    -0.056 A 
HETATM   33  C36 UNL     1      13.421   8.492   2.673  1.00  0.00     0.007 A 
HETATM   34  C37 UNL     1      13.434   9.550   3.587  1.00  0.00     0.001 A 
HETATM   35  C38 UNL     1      14.355   9.558   4.637  1.00  0.00     0.000 A 
HETATM   36  C39 UNL     1      15.265   8.506   4.776  1.00  0.00     0.001 A 
HETATM   37  C40 UNL     1      15.254   7.443   3.866  1.00  0.00     0.007 A 
ENDBRANCH  31  32
ENDBRANCH  17  31
ENDBRANCH   1  11
BRANCH   5  38
HETATM   38  C14 UNL     1      15.878   5.891  -9.480  1.00  0.00     0.075 C 
BRANCH  38  39
HETATM   39  C15 UNL     1      14.416   6.256  -9.827  1.00  0.00     0.181 C 
HETATM   40  C16 UNL     1      14.284   7.609 -10.485  1.00  0.00     0.241 C 
HETATM   41  O1  UNL     1      15.099   8.535 -10.225  1.00  0.00    -0.271 OA
HETATM   42  N4  UNL     1      13.177   7.879 -11.352  1.00  0.00    -0.346 N 
HETATM   43  C17 UNL     1      12.137   6.886 -11.637  1.00  0.00     0.180 C 
HETATM   44  H12 UNL     1      13.051   8.848 -11.723  1.00  0.00     0.163 HD
HETATM   45  C25 UNL     1      12.665   5.483 -11.481  1.00  0.00     0.241 C 
HETATM   46  N5  UNL     1      13.831   5.226 -10.690  1.00  0.00    -0.346 N 
HETATM   47  O2  UNL     1      12.072   4.526 -12.049  1.00  0.00    -0.271 OA
HETATM   48  H21 UNL     1      14.157   4.236 -10.606  1.00  0.00     0.163 HD
BRANCH  43  49
HETATM   49  C18 UNL     1      10.883   7.139 -10.775  1.00  0.00     0.073 C 
BRANCH  49  50
HETATM   50  C19 UNL     1       9.763   7.816 -11.529  1.00  0.00    -0.056 A 
HETATM   51  C20 UNL     1       8.707   7.058 -12.067  1.00  0.00     0.007 A 
HETATM   52  C21 UNL     1       7.695   7.683 -12.804  1.00  0.00     0.001 A 
HETATM   53  C22 UNL     1       7.725   9.066 -13.004  1.00  0.00     0.000 A 
HETATM   54  C23 UNL     1       8.771   9.827 -12.473  1.00  0.00     0.001 A 
HETATM   55  C24 UNL     1       9.787   9.206 -11.738  1.00  0.00     0.007 A 
ENDBRANCH  49  50
ENDBRANCH  43  49
ENDBRANCH  38  39
ENDBRANCH   5  38
TORSDOF 7
ENDMDL
MODEL 7
REMARK VINA RESULT:     -11.2      2.598      4.485
REMARK  7 active torsions:
REMARK  status: ('A' for Active; 'I' for Inactive)
REMARK    1  A    between atoms: C9_11  and  C10_12 
REMARK    2  A    between atoms: C13_16  and  C14_17 
REMARK    3  A    between atoms: C14_17  and  C15_18 
REMARK    4  A    between atoms: C17_22  and  C18_23 
REMARK    5  A    between atoms: C18_23  and  C19_24 
REMARK    6  A    between atoms: C33_42  and  C34_43 
REMARK    7  A    between atoms: C34_43  and  C35_44 
ROOT
HETATM    1  C10 UNL     1      17.422   6.387  -3.298  1.00  0.00    -0.013 A 
HETATM    2  C11 UNL     1      17.332   5.911  -1.966  1.00  0.00     0.050 A 
HETATM    3  N3  UNL     1      18.306   5.372  -1.203  1.00  0.00    -0.364 N 
HETATM    4  C12 UNL     1      17.741   5.057  -0.017  1.00  0.00     0.096 A 
HETATM    5  C13 UNL     1      16.400   5.404  -0.013  1.00  0.00    -0.028 A 
HETATM    6  C26 UNL     1      16.156   5.960  -1.254  1.00  0.00    -0.001 A 
HETATM    7  C27 UNL     1      14.993   6.511  -1.780  1.00  0.00     0.014 A 
HETATM    8  C28 UNL     1      16.236   6.970  -3.827  1.00  0.00     0.011 A 
HETATM    9  C29 UNL     1      15.045   7.024  -3.078  1.00  0.00     0.002 A 
HETATM   10  H7  UNL     1      19.308   5.225  -1.442  1.00  0.00     0.165 HD
ENDROOT
BRANCH   1  11
HETATM   11  C9  UNL     1      18.731   6.308  -4.111  1.00  0.00     0.059 A 
HETATM   12  C2  UNL     1      18.577   7.010  -5.495  1.00  0.00     0.206 A 
HETATM   13  N1  UNL     1      19.695   7.936  -5.594  1.00  0.00    -0.314 N 
HETATM   14  N2  UNL     1      18.701   5.959  -6.506  1.00  0.00    -0.367 N 
HETATM   15  C1  UNL     1      20.124   8.532  -6.827  1.00  0.00     0.245 C 
HETATM   16  C31 UNL     1      20.534   7.989  -4.406  1.00  0.00     0.183 A 
HETATM   17  C33 UNL     1      21.566   8.930  -6.993  1.00  0.00     0.181 C 
HETATM   18  O4  UNL     1      19.302   8.722  -7.764  1.00  0.00    -0.271 OA
HETATM   19  N6  UNL     1      22.415   8.128  -6.099  1.00  0.00    -0.346 N 
HETATM   20  C32 UNL     1      21.962   7.716  -4.801  1.00  0.00     0.241 C 
HETATM   21  H28 UNL     1      23.404   7.937  -6.377  1.00  0.00     0.163 HD
HETATM   22  O3  UNL     1      22.776   7.206  -3.986  1.00  0.00    -0.271 OA
HETATM   23  C30 UNL     1      19.931   6.990  -3.404  1.00  0.00     0.058 A 
HETATM   24  C3  UNL     1      19.062   4.755  -5.871  1.00  0.00     0.037 A 
HETATM   25  H2  UNL     1      18.643   6.097  -7.540  1.00  0.00     0.161 HD
HETATM   26  C4  UNL     1      19.406   3.561  -6.504  1.00  0.00     0.030 A 
HETATM   27  C8  UNL     1      19.115   4.899  -4.514  1.00  0.00    -0.015 A 
HETATM   28  C5  UNL     1      19.819   2.482  -5.707  1.00  0.00     0.002 A 
HETATM   29  C6  UNL     1      19.891   2.622  -4.308  1.00  0.00     0.001 A 
HETATM   30  C7  UNL     1      19.547   3.841  -3.702  1.00  0.00     0.011 A 
BRANCH  17  31
HETATM   31  C34 UNL     1      21.736  10.429  -6.695  1.00  0.00     0.073 C 
BRANCH  31  32
HETATM   32  C35 UNL     1      21.382  11.269  -7.894  1.00  0.00    -0.056 A 
HETATM   33  C36 UNL     1      21.530  10.750  -9.191  1.00  0.00     0.007 A 
HETATM   34  C37 UNL     1      21.222  11.537 -10.305  1.00  0.00     0.001 A 
HETATM   35  C38 UNL     1      20.778  12.850 -10.134  1.00  0.00     0.000 A 
HETATM   36  C39 UNL     1      20.640  13.380  -8.847  1.00  0.00     0.001 A 
HETATM   37  C40 UNL     1      20.944  12.595  -7.730  1.00  0.00     0.007 A 
ENDBRANCH  31  32
ENDBRANCH  17  31
ENDBRANCH   1  11
BRANCH   5  38
HETATM   38  C14 UNL     1      15.414   5.167   1.098  1.00  0.00     0.075 C 
BRANCH  38  39
HETATM   39  C15 UNL     1      15.112   6.462   1.885  1.00  0.00     0.181 C 
HETATM   40  C16 UNL     1      13.639   6.797   1.929  1.00  0.00     0.241 C 
HETATM   41  O1  UNL     1      12.873   6.463   0.986  1.00  0.00    -0.271 OA
HETATM   42  N4  UNL     1      13.114   7.575   3.012  1.00  0.00    -0.346 N 
HETATM   43  C17 UNL     1      13.953   8.079   4.102  1.00  0.00     0.180 C 
HETATM   44  H12 UNL     1      12.114   7.876   2.976  1.00  0.00     0.163 HD
HETATM   45  C25 UNL     1      15.169   7.210   4.301  1.00  0.00     0.241 C 
HETATM   46  N5  UNL     1      15.638   6.358   3.249  1.00  0.00    -0.346 N 
HETATM   47  O2  UNL     1      15.780   7.235   5.403  1.00  0.00    -0.271 OA
HETATM   48  H21 UNL     1      16.488   5.777   3.432  1.00  0.00     0.163 HD
BRANCH  43  49
HETATM   49  C18 UNL     1      14.323   9.559   3.873  1.00  0.00     0.073 C 
BRANCH  49  50
HETATM   50  C19 UNL     1      13.743  10.490   4.912  1.00  0.00    -0.056 A 
HETATM   51  C20 UNL     1      12.381  10.840   4.872  1.00  0.00     0.007 A 
HETATM   52  C21 UNL     1      11.857  11.738   5.808  1.00  0.00     0.001 A 
HETATM   53  C22 UNL     1      12.684  12.286   6.793  1.00  0.00     0.000 A 
HETATM   54  C23 UNL     1      14.038  11.942   6.840  1.00  0.00     0.001 A 
HETATM   55  C24 UNL     1      14.568  11.048   5.904  1.00  0.00     0.007 A 
ENDBRANCH  49  50
ENDBRANCH  43  49
ENDBRANCH  38  39
ENDBRANCH   5  38
TORSDOF 7
ENDMDL
MODEL 8
REMARK VINA RESULT:     -11.2      3.646      5.251
REMARK  7 active torsions:
REMARK  status: ('A' for Active; 'I' for Inactive)
REMARK    1  A    between atoms: C9_11  and  C10_12 
REMARK    2  A    between atoms: C13_16  and  C14_17 
REMARK    3  A    between atoms: C14_17  and  C15_18 
REMARK    4  A    between atoms: C17_22  and  C18_23 
REMARK    5  A    between atoms: C18_23  and  C19_24 
REMARK    6  A    between atoms: C33_42  and  C34_43 
REMARK    7  A    between atoms: C34_43  and  C35_44 
ROOT
HETATM    1  C10 UNL     1      18.943   7.984  -7.657  1.00  0.00    -0.013 A 
HETATM    2  C11 UNL     1      18.721   7.635  -6.302  1.00  0.00     0.050 A 
HETATM    3  N3  UNL     1      19.232   8.212  -5.193  1.00  0.00    -0.364 N 
HETATM    4  C12 UNL     1      18.745   7.524  -4.138  1.00  0.00     0.096 A 
HETATM    5  C13 UNL     1      17.910   6.505  -4.567  1.00  0.00    -0.028 A 
HETATM    6  C26 UNL     1      17.891   6.595  -5.946  1.00  0.00    -0.001 A 
HETATM    7  C27 UNL     1      17.192   5.849  -6.887  1.00  0.00     0.014 A 
HETATM    8  C28 UNL     1      18.210   7.233  -8.618  1.00  0.00     0.011 A 
HETATM    9  C29 UNL     1      17.355   6.182  -8.234  1.00  0.00     0.002 A 
HETATM   10  H7  UNL     1      19.866   9.034  -5.127  1.00  0.00     0.165 HD
ENDROOT
BRANCH   1  11
HETATM   11  C9  UNL     1      19.896   9.129  -8.063  1.00  0.00     0.059 A 
HETATM   12  C2  UNL     1      19.499   9.726  -9.448  1.00  0.00     0.206 A 
HETATM   13  N1  UNL     1      19.402  11.164  -9.243  1.00  0.00    -0.314 N 
HETATM   14  N2  UNL     1      20.601   9.419 -10.360  1.00  0.00    -0.367 N 
HETATM   15  C1  UNL     1      19.391  12.117 -10.316  1.00  0.00     0.245 C 
HETATM   16  C31 UNL     1      19.612  11.588  -7.868  1.00  0.00     0.183 A 
HETATM   17  C33 UNL     1      19.914  13.508 -10.073  1.00  0.00     0.181 C 
HETATM   18  O4  UNL     1      18.948  11.797 -11.452  1.00  0.00    -0.271 OA
HETATM   19  N6  UNL     1      20.873  13.497  -8.959  1.00  0.00    -0.346 N 
HETATM   20  C32 UNL     1      20.710  12.619  -7.835  1.00  0.00     0.241 C 
HETATM   21  H28 UNL     1      21.636  14.211  -8.940  1.00  0.00     0.163 HD
HETATM   22  O3  UNL     1      21.429  12.771  -6.811  1.00  0.00    -0.271 OA
HETATM   23  C30 UNL     1      19.892  10.311  -7.058  1.00  0.00     0.058 A 
HETATM   24  C3  UNL     1      21.656   8.848  -9.624  1.00  0.00     0.037 A 
HETATM   25  H2  UNL     1      20.648   9.680 -11.370  1.00  0.00     0.161 HD
HETATM   26  C4  UNL     1      22.929   8.544 -10.108  1.00  0.00     0.030 A 
HETATM   27  C8  UNL     1      21.321   8.679  -8.310  1.00  0.00    -0.015 A 
HETATM   28  C5  UNL     1      23.883   8.051  -9.204  1.00  0.00     0.002 A 
HETATM   29  C6  UNL     1      23.553   7.887  -7.846  1.00  0.00     0.001 A 
HETATM   30  C7  UNL     1      22.265   8.211  -7.387  1.00  0.00     0.011 A 
BRANCH  17  31
HETATM   31  C34 UNL     1      18.748  14.464  -9.771  1.00  0.00     0.073 C 
BRANCH  31  32
HETATM   32  C35 UNL     1      18.633  15.538 -10.821  1.00  0.00    -0.056 A 
HETATM   33  C36 UNL     1      18.979  16.865 -10.518  1.00  0.00     0.007 A 
HETATM   34  C37 UNL     1      18.851  17.866 -11.486  1.00  0.00     0.001 A 
HETATM   35  C38 UNL     1      18.365  17.553 -12.757  1.00  0.00     0.000 A 
HETATM   36  C39 UNL     1      18.006  16.237 -13.064  1.00  0.00     0.001 A 
HETATM   37  C40 UNL     1      18.135  15.232 -12.100  1.00  0.00     0.007 A 
ENDBRANCH  31  32
ENDBRANCH  17  31
ENDBRANCH   1  11
BRANCH   5  38
HETATM   38  C14 UNL     1      17.220   5.486  -3.703  1.00  0.00     0.075 C 
BRANCH  38  39
HETATM   39  C15 UNL     1      16.825   6.071  -2.328  1.00  0.00     0.181 C 
HETATM   40  C16 UNL     1      15.498   6.794  -2.352  1.00  0.00     0.241 C 
HETATM   41  O1  UNL     1      15.095   7.369  -3.399  1.00  0.00    -0.271 OA
HETATM   42  N4  UNL     1      14.720   6.902  -1.154  1.00  0.00    -0.346 N 
HETATM   43  C17 UNL     1      15.158   6.339   0.125  1.00  0.00     0.180 C 
HETATM   44  H12 UNL     1      13.852   7.486  -1.168  1.00  0.00     0.163 HD
HETATM   45  C25 UNL     1      16.087   5.170  -0.083  1.00  0.00     0.241 C 
HETATM   46  N5  UNL     1      16.793   5.009  -1.319  1.00  0.00    -0.346 N 
HETATM   47  O2  UNL     1      16.247   4.328   0.842  1.00  0.00    -0.271 OA
HETATM   48  H21 UNL     1      17.430   4.186  -1.415  1.00  0.00     0.163 HD
BRANCH  43  49
HETATM   49  C18 UNL     1      15.780   7.428   1.023  1.00  0.00     0.073 C 
BRANCH  49  50
HETATM   50  C19 UNL     1      14.871   7.874   2.143  1.00  0.00    -0.056 A 
HETATM   51  C20 UNL     1      13.962   8.930   1.944  1.00  0.00     0.007 A 
HETATM   52  C21 UNL     1      13.153   9.371   2.998  1.00  0.00     0.001 A 
HETATM   53  C22 UNL     1      13.238   8.758   4.251  1.00  0.00     0.000 A 
HETATM   54  C23 UNL     1      14.138   7.708   4.456  1.00  0.00     0.001 A 
HETATM   55  C24 UNL     1      14.952   7.266   3.408  1.00  0.00     0.007 A 
ENDBRANCH  49  50
ENDBRANCH  43  49
ENDBRANCH  38  39
ENDBRANCH   5  38
TORSDOF 7
ENDMDL
MODEL 9
REMARK VINA RESULT:     -11.1      3.575      5.838
REMARK  7 active torsions:
REMARK  status: ('A' for Active; 'I' for Inactive)
REMARK    1  A    between atoms: C9_11  and  C10_12 
REMARK    2  A    between atoms: C13_16  and  C14_17 
REMARK    3  A    between atoms: C14_17  and  C15_18 
REMARK    4  A    between atoms: C17_22  and  C18_23 
REMARK    5  A    between atoms: C18_23  and  C19_24 
REMARK    6  A    between atoms: C33_42  and  C34_43 
REMARK    7  A    between atoms: C34_43  and  C35_44 
ROOT
HETATM    1  C10 UNL     1      16.427   4.897  -2.891  1.00  0.00    -0.013 A 
HETATM    2  C11 UNL     1      16.397   5.489  -1.603  1.00  0.00     0.050 A 
HETATM    3  N3  UNL     1      16.998   6.626  -1.190  1.00  0.00    -0.364 N 
HETATM    4  C12 UNL     1      16.694   6.772   0.118  1.00  0.00     0.096 A 
HETATM    5  C13 UNL     1      15.888   5.730   0.547  1.00  0.00    -0.028 A 
HETATM    6  C26 UNL     1      15.695   4.928  -0.561  1.00  0.00    -0.001 A 
HETATM    7  C27 UNL     1      14.941   3.770  -0.714  1.00  0.00     0.014 A 
HETATM    8  C28 UNL     1      15.638   3.724  -3.050  1.00  0.00     0.011 A 
HETATM    9  C29 UNL     1      14.913   3.172  -1.976  1.00  0.00     0.002 A 
HETATM   10  H7  UNL     1      17.575   7.290  -1.745  1.00  0.00     0.165 HD
ENDROOT
BRANCH   1  11
HETATM   11  C9  UNL     1      17.238   5.506  -4.054  1.00  0.00     0.059 A 
HETATM   12  C2  UNL     1      16.683   6.907  -4.454  1.00  0.00     0.206 A 
HETATM   13  N1  UNL     1      17.831   7.802  -4.450  1.00  0.00    -0.314 N 
HETATM   14  N2  UNL     1      16.155   6.769  -5.812  1.00  0.00    -0.367 N 
HETATM   15  C1  UNL     1      17.832   9.092  -5.078  1.00  0.00     0.245 C 
HETATM   16  C31 UNL     1      19.073   7.178  -4.021  1.00  0.00     0.183 A 
HETATM   17  C33 UNL     1      19.128   9.665  -5.587  1.00  0.00     0.181 C 
HETATM   18  O4  UNL     1      16.759   9.743  -5.203  1.00  0.00    -0.271 OA
HETATM   19  N6  UNL     1      20.076   8.581  -5.878  1.00  0.00    -0.346 N 
HETATM   20  C32 UNL     1      20.120   7.385  -5.084  1.00  0.00     0.241 C 
HETATM   21  H28 UNL     1      20.800   8.725  -6.619  1.00  0.00     0.163 HD
HETATM   22  O3  UNL     1      21.068   6.569  -5.231  1.00  0.00    -0.271 OA
HETATM   23  C30 UNL     1      18.737   5.709  -3.713  1.00  0.00     0.058 A 
HETATM   24  C3  UNL     1      16.480   5.489  -6.300  1.00  0.00     0.037 A 
HETATM   25  H2  UNL     1      15.709   7.529  -6.373  1.00  0.00     0.161 HD
HETATM   26  C4  UNL     1      16.273   5.025  -7.599  1.00  0.00     0.030 A 
HETATM   27  C8  UNL     1      17.114   4.736  -5.353  1.00  0.00    -0.015 A 
HETATM   28  C5  UNL     1      16.736   3.741  -7.928  1.00  0.00     0.002 A 
HETATM   29  C6  UNL     1      17.404   2.962  -6.965  1.00  0.00     0.001 A 
HETATM   30  C7  UNL     1      17.606   3.462  -5.667  1.00  0.00     0.011 A 
BRANCH  17  31
HETATM   31  C34 UNL     1      19.719  10.634  -4.549  1.00  0.00     0.073 C 
BRANCH  31  32
HETATM   32  C35 UNL     1      21.145  10.279  -4.218  1.00  0.00    -0.056 A 
HETATM   33  C36 UNL     1      21.468   9.749  -2.957  1.00  0.00     0.007 A 
HETATM   34  C37 UNL     1      22.794   9.440  -2.641  1.00  0.00     0.001 A 
HETATM   35  C38 UNL     1      23.809   9.671  -3.573  1.00  0.00     0.000 A 
HETATM   36  C39 UNL     1      23.498  10.212  -4.825  1.00  0.00     0.001 A 
HETATM   37  C40 UNL     1      22.172  10.519  -5.147  1.00  0.00     0.007 A 
ENDBRANCH  31  32
ENDBRANCH  17  31
ENDBRANCH   1  11
BRANCH   5  38
HETATM   38  C14 UNL     1      15.383   5.503   1.945  1.00  0.00     0.075 C 
BRANCH  38  39
HETATM   39  C15 UNL     1      15.121   6.835   2.685  1.00  0.00     0.181 C 
HETATM   40  C16 UNL     1      13.665   7.240   2.674  1.00  0.00     0.241 C 
HETATM   41  O1  UNL     1      12.912   6.914   1.717  1.00  0.00    -0.271 OA
HETATM   42  N4  UNL     1      13.146   8.074   3.716  1.00  0.00    -0.346 N 
HETATM   43  C17 UNL     1      13.976   8.570   4.817  1.00  0.00     0.180 C 
HETATM   44  H12 UNL     1      12.163   8.421   3.641  1.00  0.00     0.163 HD
HETATM   45  C25 UNL     1      15.142   7.651   5.079  1.00  0.00     0.241 C 
HETATM   46  N5  UNL     1      15.600   6.747   4.067  1.00  0.00    -0.346 N 
HETATM   47  O2  UNL     1      15.721   7.680   6.199  1.00  0.00    -0.271 OA
HETATM   48  H21 UNL     1      16.415   6.132   4.293  1.00  0.00     0.163 HD
BRANCH  43  49
HETATM   49  C18 UNL     1      14.424  10.024   4.558  1.00  0.00     0.073 C 
BRANCH  49  50
HETATM   50  C19 UNL     1      13.704  11.035   5.417  1.00  0.00    -0.056 A 
HETATM   51  C20 UNL     1      12.312  11.208   5.299  1.00  0.00     0.007 A 
HETATM   52  C21 UNL     1      11.655  12.178   6.064  1.00  0.00     0.001 A 
HETATM   53  C22 UNL     1      12.378  12.975   6.956  1.00  0.00     0.000 A 
HETATM   54  C23 UNL     1      13.760  12.809   7.080  1.00  0.00     0.001 A 
HETATM   55  C24 UNL     1      14.423  11.844   6.315  1.00  0.00     0.007 A 
ENDBRANCH  49  50
ENDBRANCH  43  49
ENDBRANCH  38  39
ENDBRANCH   5  38
TORSDOF 7
ENDMDL
MODEL 10
REMARK VINA RESULT:     -11.0      2.651      4.249
REMARK  7 active torsions:
REMARK  status: ('A' for Active; 'I' for Inactive)
REMARK    1  A    between atoms: C9_11  and  C10_12 
REMARK    2  A    between atoms: C13_16  and  C14_17 
REMARK    3  A    between atoms: C14_17  and  C15_18 
REMARK    4  A    between atoms: C17_22  and  C18_23 
REMARK    5  A    between atoms: C18_23  and  C19_24 
REMARK    6  A    between atoms: C33_42  and  C34_43 
REMARK    7  A    between atoms: C34_43  and  C35_44 
ROOT
HETATM    1  C10 UNL     1      19.641   5.744  -4.046  1.00  0.00    -0.013 A 
HETATM    2  C11 UNL     1      18.443   5.133  -3.600  1.00  0.00     0.050 A 
HETATM    3  N3  UNL     1      17.437   4.623  -4.343  1.00  0.00    -0.364 N 
HETATM    4  C12 UNL     1      16.507   4.166  -3.476  1.00  0.00     0.096 A 
HETATM    5  C13 UNL     1      16.920   4.374  -2.170  1.00  0.00    -0.028 A 
HETATM    6  C26 UNL     1      18.159   4.977  -2.263  1.00  0.00    -0.001 A 
HETATM    7  C27 UNL     1      19.044   5.373  -1.266  1.00  0.00     0.014 A 
HETATM    8  C28 UNL     1      20.555   6.129  -3.025  1.00  0.00     0.011 A 
HETATM    9  C29 UNL     1      20.255   5.948  -1.661  1.00  0.00     0.002 A 
HETATM   10  H7  UNL     1      17.365   4.564  -5.379  1.00  0.00     0.165 HD
ENDROOT
BRANCH   1  11
HETATM   11  C9  UNL     1      19.950   5.948  -5.544  1.00  0.00     0.059 A 
HETATM   12  C2  UNL     1      19.038   7.053  -6.160  1.00  0.00     0.206 A 
HETATM   13  N1  UNL     1      19.939   7.979  -6.829  1.00  0.00    -0.314 N 
HETATM   14  N2  UNL     1      18.183   6.382  -7.141  1.00  0.00    -0.367 N 
HETATM   15  C1  UNL     1      19.506   8.945  -7.799  1.00  0.00     0.245 C 
HETATM   16  C31 UNL     1      21.350   7.664  -6.668  1.00  0.00     0.183 A 
HETATM   17  C33 UNL     1      20.464   9.397  -8.869  1.00  0.00     0.181 C 
HETATM   18  O4  UNL     1      18.336   9.412  -7.757  1.00  0.00    -0.271 OA
HETATM   19  N6  UNL     1      21.485   8.365  -9.099  1.00  0.00    -0.346 N 
HETATM   20  C32 UNL     1      21.988   7.553  -8.028  1.00  0.00     0.241 C 
HETATM   21  H28 UNL     1      21.923   8.288 -10.045  1.00  0.00     0.163 HD
HETATM   22  O3  UNL     1      22.997   6.822  -8.215  1.00  0.00    -0.271 OA
HETATM   23  C30 UNL     1      21.414   6.387  -5.811  1.00  0.00     0.058 A 
HETATM   24  C3  UNL     1      18.603   5.045  -7.272  1.00  0.00     0.037 A 
HETATM   25  H2  UNL     1      17.455   6.843  -7.730  1.00  0.00     0.161 HD
HETATM   26  C4  UNL     1      18.130   4.121  -8.203  1.00  0.00     0.030 A 
HETATM   27  C8  UNL     1      19.616   4.748  -6.405  1.00  0.00    -0.015 A 
HETATM   28  C5  UNL     1      18.725   2.850  -8.239  1.00  0.00     0.002 A 
HETATM   29  C6  UNL     1      19.780   2.537  -7.362  1.00  0.00     0.001 A 
HETATM   30  C7  UNL     1      20.240   3.493  -6.441  1.00  0.00     0.011 A 
BRANCH  17  31
HETATM   31  C34 UNL     1      21.122  10.725  -8.460  1.00  0.00     0.073 C 
BRANCH  31  32
HETATM   32  C35 UNL     1      20.463  11.897  -9.140  1.00  0.00    -0.056 A 
HETATM   33  C36 UNL     1      20.607  13.193  -8.616  1.00  0.00     0.007 A 
HETATM   34  C37 UNL     1      19.977  14.277  -9.235  1.00  0.00     0.001 A 
HETATM   35  C38 UNL     1      19.188  14.075 -10.369  1.00  0.00     0.000 A 
HETATM   36  C39 UNL     1      19.027  12.787 -10.888  1.00  0.00     0.001 A 
HETATM   37  C40 UNL     1      19.658  11.699 -10.276  1.00  0.00     0.007 A 
ENDBRANCH  31  32
ENDBRANCH  17  31
ENDBRANCH   1  11
BRANCH   5  38
HETATM   38  C14 UNL     1      16.143   4.056  -0.922  1.00  0.00     0.075 C 
BRANCH  38  39
HETATM   39  C15 UNL     1      15.774   5.333  -0.133  1.00  0.00     0.181 C 
HETATM   40  C16 UNL     1      14.818   6.234  -0.880  1.00  0.00     0.241 C 
HETATM   41  O1  UNL     1      14.819   6.273  -2.139  1.00  0.00    -0.271 OA
HETATM   42  N4  UNL     1      13.953   7.116  -0.155  1.00  0.00    -0.346 N 
HETATM   43  C17 UNL     1      13.952   7.197   1.307  1.00  0.00     0.180 C 
HETATM   44  H12 UNL     1      13.367   7.798  -0.690  1.00  0.00     0.163 HD
HETATM   45  C25 UNL     1      14.418   5.903   1.925  1.00  0.00     0.241 C 
HETATM   46  N5  UNL     1      15.204   4.974   1.168  1.00  0.00    -0.346 N 
HETATM   47  O2  UNL     1      14.117   5.638   3.121  1.00  0.00    -0.271 OA
HETATM   48  H21 UNL     1      15.509   4.093   1.641  1.00  0.00     0.163 HD
BRANCH  43  49
HETATM   49  C18 UNL     1      14.775   8.408   1.793  1.00  0.00     0.073 C 
BRANCH  49  50
HETATM   50  C19 UNL     1      14.224   9.043   3.048  1.00  0.00    -0.056 A 
HETATM   51  C20 UNL     1      12.893   9.500   3.088  1.00  0.00     0.007 A 
HETATM   52  C21 UNL     1      12.400  10.130   4.236  1.00  0.00     0.001 A 
HETATM   53  C22 UNL     1      13.224  10.300   5.352  1.00  0.00     0.000 A 
HETATM   54  C23 UNL     1      14.546   9.848   5.320  1.00  0.00     0.001 A 
HETATM   55  C24 UNL     1      15.047   9.222   4.173  1.00  0.00     0.007 A 
ENDBRANCH  49  50
ENDBRANCH  43  49
ENDBRANCH  38  39
ENDBRANCH   5  38
TORSDOF 7
ENDMDL
MODEL 11
REMARK VINA RESULT:     -10.9      4.702     11.709
REMARK  7 active torsions:
REMARK  status: ('A' for Active; 'I' for Inactive)
REMARK    1  A    between atoms: C9_11  and  C10_12 
REMARK    2  A    between atoms: C13_16  and  C14_17 
REMARK    3  A    between atoms: C14_17  and  C15_18 
REMARK    4  A    between atoms: C17_22  and  C18_23 
REMARK    5  A    between atoms: C18_23  and  C19_24 
REMARK    6  A    between atoms: C33_42  and  C34_43 
REMARK    7  A    between atoms: C34_43  and  C35_44 
ROOT
HETATM    1  C10 UNL     1      22.060   6.959  -6.375  1.00  0.00    -0.013 A 
HETATM    2  C11 UNL     1      21.849   5.719  -7.026  1.00  0.00     0.050 A 
HETATM    3  N3  UNL     1      20.965   4.747  -6.712  1.00  0.00    -0.364 N 
HETATM    4  C12 UNL     1      21.146   3.753  -7.608  1.00  0.00     0.096 A 
HETATM    5  C13 UNL     1      22.144   4.088  -8.509  1.00  0.00    -0.028 A 
HETATM    6  C26 UNL     1      22.573   5.347  -8.136  1.00  0.00    -0.001 A 
HETATM    7  C27 UNL     1      23.528   6.179  -8.710  1.00  0.00     0.014 A 
HETATM    8  C28 UNL     1      23.022   7.818  -6.977  1.00  0.00     0.011 A 
HETATM    9  C29 UNL     1      23.744   7.427  -8.121  1.00  0.00     0.002 A 
HETATM   10  H7  UNL     1      20.260   4.739  -5.947  1.00  0.00     0.165 HD
ENDROOT
BRANCH   1  11
HETATM   11  C9  UNL     1      21.272   7.367  -5.112  1.00  0.00     0.059 A 
HETATM   12  C2  UNL     1      19.813   7.786  -5.471  1.00  0.00     0.206 A 
HETATM   13  N1  UNL     1      18.952   7.008  -4.593  1.00  0.00    -0.314 N 
HETATM   14  N2  UNL     1      19.704   9.211  -5.153  1.00  0.00    -0.367 N 
HETATM   15  C1  UNL     1      17.572   7.322  -4.355  1.00  0.00     0.245 C 
HETATM   16  C31 UNL     1      19.661   6.064  -3.744  1.00  0.00     0.183 A 
HETATM   17  C33 UNL     1      16.941   6.931  -3.045  1.00  0.00     0.181 C 
HETATM   18  O4  UNL     1      16.892   7.919  -5.232  1.00  0.00    -0.271 OA
HETATM   19  N6  UNL     1      17.974   6.809  -2.006  1.00  0.00    -0.346 N 
HETATM   20  C32 UNL     1      19.289   6.320  -2.307  1.00  0.00     0.241 C 
HETATM   21  H28 UNL     1      17.714   6.991  -1.010  1.00  0.00     0.163 HD
HETATM   22  O3  UNL     1      20.083   6.040  -1.369  1.00  0.00    -0.271 OA
HETATM   23  C30 UNL     1      21.156   6.224  -4.070  1.00  0.00     0.058 A 
HETATM   24  C3  UNL     1      20.884   9.626  -4.509  1.00  0.00     0.037 A 
HETATM   25  H2  UNL     1      18.851   9.800  -5.280  1.00  0.00     0.161 HD
HETATM   26  C4  UNL     1      21.112  10.874  -3.930  1.00  0.00     0.030 A 
HETATM   27  C8  UNL     1      21.801   8.616  -4.439  1.00  0.00    -0.015 A 
HETATM   28  C5  UNL     1      22.326  11.083  -3.257  1.00  0.00     0.002 A 
HETATM   29  C6  UNL     1      23.272  10.045  -3.165  1.00  0.00     0.001 A 
HETATM   30  C7  UNL     1      23.009   8.796  -3.751  1.00  0.00     0.011 A 
BRANCH  17  31
HETATM   31  C34 UNL     1      16.177   5.605  -3.204  1.00  0.00     0.073 C 
BRANCH  31  32
HETATM   32  C35 UNL     1      15.251   5.364  -2.041  1.00  0.00    -0.056 A 
HETATM   33  C36 UNL     1      14.847   6.434  -1.224  1.00  0.00     0.007 A 
HETATM   34  C37 UNL     1      14.005   6.207  -0.131  1.00  0.00     0.001 A 
HETATM   35  C38 UNL     1      13.572   4.912   0.163  1.00  0.00     0.000 A 
HETATM   36  C39 UNL     1      13.981   3.840  -0.636  1.00  0.00     0.001 A 
HETATM   37  C40 UNL     1      14.820   4.062  -1.732  1.00  0.00     0.007 A 
ENDBRANCH  31  32
ENDBRANCH  17  31
ENDBRANCH   1  11
BRANCH   5  38
HETATM   38  C14 UNL     1      22.677   3.227  -9.620  1.00  0.00     0.075 C 
BRANCH  38  39
HETATM   39  C15 UNL     1      23.922   2.423  -9.178  1.00  0.00     0.181 C 
HETATM   40  C16 UNL     1      23.648   0.945  -9.028  1.00  0.00     0.241 C 
HETATM   41  O1  UNL     1      22.505   0.530  -8.697  1.00  0.00    -0.271 OA
HETATM   42  N4  UNL     1      24.715   0.000  -9.181  1.00  0.00    -0.346 N 
HETATM   43  C17 UNL     1      26.091   0.405  -9.478  1.00  0.00     0.180 C 
HETATM   44  H12 UNL     1      24.527  -1.008  -8.980  1.00  0.00     0.163 HD
HETATM   45  C25 UNL     1      26.127   1.726 -10.203  1.00  0.00     0.241 C 
HETATM   46  N5  UNL     1      25.019   2.631 -10.128  1.00  0.00    -0.346 N 
HETATM   47  O2  UNL     1      27.144   2.040 -10.878  1.00  0.00    -0.271 OA
HETATM   48  H21 UNL     1      25.091   3.538 -10.643  1.00  0.00     0.163 HD
BRANCH  43  49
HETATM   49  C18 UNL     1      26.951   0.417  -8.197  1.00  0.00     0.073 C 
BRANCH  49  50
HETATM   50  C19 UNL     1      26.461  -0.542  -7.137  1.00  0.00    -0.056 A 
HETATM   51  C20 UNL     1      25.759  -0.064  -6.015  1.00  0.00     0.007 A 
HETATM   52  C21 UNL     1      25.347  -0.950  -5.013  1.00  0.00     0.001 A 
HETATM   53  C22 UNL     1      25.624  -2.314  -5.126  1.00  0.00     0.000 A 
HETATM   54  C23 UNL     1      26.320  -2.797  -6.238  1.00  0.00     0.001 A 
HETATM   55  C24 UNL     1      26.738  -1.916  -7.241  1.00  0.00     0.007 A 
ENDBRANCH  49  50
ENDBRANCH  43  49
ENDBRANCH  38  39
ENDBRANCH   5  38
TORSDOF 7
ENDMDL
MODEL 12
REMARK VINA RESULT:     -10.9      2.919      4.135
REMARK  7 active torsions:
REMARK  status: ('A' for Active; 'I' for Inactive)
REMARK    1  A    between atoms: C9_11  and  C10_12 
REMARK    2  A    between atoms: C13_16  and  C14_17 
REMARK    3  A    between atoms: C14_17  and  C15_18 
REMARK    4  A    between atoms: C17_22  and  C18_23 
REMARK    5  A    between atoms: C18_23  and  C19_24 
REMARK    6  A    between atoms: C33_42  and  C34_43 
REMARK    7  A    between atoms: C34_43  and  C35_44 
ROOT
HETATM    1  C10 UNL     1      19.864   6.830  -3.940  1.00  0.00    -0.013 A 
HETATM    2  C11 UNL     1      18.632   6.457  -3.348  1.00  0.00     0.050 A 
HETATM    3  N3  UNL     1      17.388   6.574  -3.859  1.00  0.00    -0.364 N 
HETATM    4  C12 UNL     1      16.537   6.099  -2.923  1.00  0.00     0.096 A 
HETATM    5  C13 UNL     1      17.237   5.667  -1.808  1.00  0.00    -0.028 A 
HETATM    6  C26 UNL     1      18.569   5.886  -2.097  1.00  0.00    -0.001 A 
HETATM    7  C27 UNL     1      19.709   5.606  -1.353  1.00  0.00     0.014 A 
HETATM    8  C28 UNL     1      21.031   6.523  -3.186  1.00  0.00     0.011 A 
HETATM    9  C29 UNL     1      20.949   5.926  -1.913  1.00  0.00     0.002 A 
HETATM   10  H7  UNL     1      17.104   6.939  -4.791  1.00  0.00     0.165 HD
ENDROOT
BRANCH   1  11
HETATM   11  C9  UNL     1      19.937   7.498  -5.330  1.00  0.00     0.059 A 
HETATM   12  C2  UNL     1      18.916   6.854  -6.317  1.00  0.00     0.206 A 
HETATM   13  N1  UNL     1      18.161   7.962  -6.882  1.00  0.00    -0.314 N 
HETATM   14  N2  UNL     1      19.708   6.199  -7.359  1.00  0.00    -0.367 N 
HETATM   15  C1  UNL     1      17.361   7.853  -8.069  1.00  0.00     0.245 C 
HETATM   16  C31 UNL     1      18.507   9.264  -6.332  1.00  0.00     0.183 A 
HETATM   17  C33 UNL     1      17.144   9.069  -8.928  1.00  0.00     0.181 C 
HETATM   18  O4  UNL     1      16.842   6.750  -8.389  1.00  0.00    -0.271 OA
HETATM   19  N6  UNL     1      18.245  10.024  -8.735  1.00  0.00    -0.346 N 
HETATM   20  C32 UNL     1      18.880  10.191  -7.458  1.00  0.00     0.241 C 
HETATM   21  H28 UNL     1      18.505  10.664  -9.520  1.00  0.00     0.163 HD
HETATM   22  O3  UNL     1      19.677  11.149  -7.275  1.00  0.00    -0.271 OA
HETATM   23  C30 UNL     1      19.617   9.016  -5.296  1.00  0.00     0.058 A 
HETATM   24  C3  UNL     1      21.065   6.521  -7.171  1.00  0.00     0.037 A 
HETATM   25  H2  UNL     1      19.325   5.671  -8.175  1.00  0.00     0.161 HD
HETATM   26  C4  UNL     1      22.115   6.203  -8.032  1.00  0.00     0.030 A 
HETATM   27  C8  UNL     1      21.252   7.274  -6.046  1.00  0.00    -0.015 A 
HETATM   28  C5  UNL     1      23.398   6.679  -7.720  1.00  0.00     0.002 A 
HETATM   29  C6  UNL     1      23.600   7.468  -6.573  1.00  0.00     0.001 A 
HETATM   30  C7  UNL     1      22.521   7.779  -5.730  1.00  0.00     0.011 A 
BRANCH  17  31
HETATM   31  C34 UNL     1      15.796   9.724  -8.585  1.00  0.00     0.073 C 
BRANCH  31  32
HETATM   32  C35 UNL     1      14.860   9.704  -9.765  1.00  0.00    -0.056 A 
HETATM   33  C36 UNL     1      14.208  10.880 -10.173  1.00  0.00     0.007 A 
HETATM   34  C37 UNL     1      13.322  10.856 -11.254  1.00  0.00     0.001 A 
HETATM   35  C38 UNL     1      13.069   9.659 -11.926  1.00  0.00     0.000 A 
HETATM   36  C39 UNL     1      13.702   8.481 -11.518  1.00  0.00     0.001 A 
HETATM   37  C40 UNL     1      14.592   8.499 -10.439  1.00  0.00     0.007 A 
ENDBRANCH  31  32
ENDBRANCH  17  31
ENDBRANCH   1  11
BRANCH   5  38
HETATM   38  C14 UNL     1      16.649   5.125  -0.534  1.00  0.00     0.075 C 
BRANCH  38  39
HETATM   39  C15 UNL     1      15.851   6.203   0.234  1.00  0.00     0.181 C 
HETATM   40  C16 UNL     1      14.363   6.133  -0.023  1.00  0.00     0.241 C 
HETATM   41  O1  UNL     1      13.918   5.713  -1.124  1.00  0.00    -0.271 OA
HETATM   42  N4  UNL     1      13.443   6.624   0.960  1.00  0.00    -0.346 N 
HETATM   43  C17 UNL     1      13.881   7.209   2.229  1.00  0.00     0.180 C 
HETATM   44  H12 UNL     1      12.425   6.653   0.725  1.00  0.00     0.163 HD
HETATM   45  C25 UNL     1      15.229   6.674   2.641  1.00  0.00     0.241 C 
HETATM   46  N5  UNL     1      16.111   6.094   1.672  1.00  0.00    -0.346 N 
HETATM   47  O2  UNL     1      15.585   6.740   3.849  1.00  0.00    -0.271 OA
HETATM   48  H21 UNL     1      17.038   5.741   2.004  1.00  0.00     0.163 HD
BRANCH  43  49
HETATM   49  C18 UNL     1      13.860   8.751   2.161  1.00  0.00     0.073 C 
BRANCH  49  50
HETATM   50  C19 UNL     1      13.396   9.401   3.442  1.00  0.00    -0.056 A 
HETATM   51  C20 UNL     1      14.330   9.819   4.408  1.00  0.00     0.007 A 
HETATM   52  C21 UNL     1      13.894  10.379   5.614  1.00  0.00     0.001 A 
HETATM   53  C22 UNL     1      12.528  10.533   5.862  1.00  0.00     0.000 A 
HETATM   54  C23 UNL     1      11.593  10.122   4.908  1.00  0.00     0.001 A 
HETATM   55  C24 UNL     1      12.023   9.557   3.702  1.00  0.00     0.007 A 
ENDBRANCH  49  50
ENDBRANCH  43  49
ENDBRANCH  38  39
ENDBRANCH   5  38
TORSDOF 7
ENDMDL
MODEL 13
REMARK VINA RESULT:     -10.9      3.084      4.458
REMARK  7 active torsions:
REMARK  status: ('A' for Active; 'I' for Inactive)
REMARK    1  A    between atoms: C9_11  and  C10_12 
REMARK    2  A    between atoms: C13_16  and  C14_17 
REMARK    3  A    between atoms: C14_17  and  C15_18 
REMARK    4  A    between atoms: C17_22  and  C18_23 
REMARK    5  A    between atoms: C18_23  and  C19_24 
REMARK    6  A    between atoms: C33_42  and  C34_43 
REMARK    7  A    between atoms: C34_43  and  C35_44 
ROOT
HETATM    1  C10 UNL     1      18.813   7.038  -6.347  1.00  0.00    -0.013 A 
HETATM    2  C11 UNL     1      18.577   7.106  -4.951  1.00  0.00     0.050 A 
HETATM    3  N3  UNL     1      18.985   8.050  -4.077  1.00  0.00    -0.364 N 
HETATM    4  C12 UNL     1      18.531   7.677  -2.861  1.00  0.00     0.096 A 
HETATM    5  C13 UNL     1      17.820   6.491  -2.954  1.00  0.00    -0.028 A 
HETATM    6  C26 UNL     1      17.844   6.146  -4.291  1.00  0.00    -0.001 A 
HETATM    7  C27 UNL     1      17.259   5.073  -4.954  1.00  0.00     0.014 A 
HETATM    8  C28 UNL     1      18.197   5.951  -7.027  1.00  0.00     0.011 A 
HETATM    9  C29 UNL     1      17.438   4.986  -6.337  1.00  0.00     0.002 A 
HETATM   10  H7  UNL     1      19.530   8.915  -4.269  1.00  0.00     0.165 HD
ENDROOT
BRANCH   1  11
HETATM   11  C9  UNL     1      19.660   8.096  -7.087  1.00  0.00     0.059 A 
HETATM   12  C2  UNL     1      19.095   8.369  -8.515  1.00  0.00     0.206 A 
HETATM   13  N1  UNL     1      18.945   9.813  -8.609  1.00  0.00    -0.314 N 
HETATM   14  N2  UNL     1      20.115   7.904  -9.457  1.00  0.00    -0.367 N 
HETATM   15  C1  UNL     1      18.778  10.512  -9.852  1.00  0.00     0.245 C 
HETATM   16  C31 UNL     1      19.272  10.530  -7.386  1.00  0.00     0.183 A 
HETATM   17  C33 UNL     1      19.250  11.937  -9.966  1.00  0.00     0.181 C 
HETATM   18  O4  UNL     1      18.239   9.942 -10.838  1.00  0.00    -0.271 OA
HETATM   19  N6  UNL     1      20.316  12.194  -8.987  1.00  0.00    -0.346 N 
HETATM   20  C32 UNL     1      20.313  11.575  -7.692  1.00  0.00     0.241 C 
HETATM   21  H28 UNL     1      21.039  12.917  -9.203  1.00  0.00     0.163 HD
HETATM   22  O3  UNL     1      21.122  11.964  -6.809  1.00  0.00    -0.271 OA
HETATM   23  C30 UNL     1      19.697   9.466  -6.360  1.00  0.00     0.058 A 
HETATM   24  C3  UNL     1      21.266   7.535  -8.737  1.00  0.00     0.037 A 
HETATM   25  H2  UNL     1      20.045   7.943 -10.498  1.00  0.00     0.161 HD
HETATM   26  C4  UNL     1      22.498   7.171  -9.282  1.00  0.00     0.030 A 
HETATM   27  C8  UNL     1      21.074   7.644  -7.388  1.00  0.00    -0.015 A 
HETATM   28  C5  UNL     1      23.562   6.912  -8.404  1.00  0.00     0.002 A 
HETATM   29  C6  UNL     1      23.380   7.035  -7.014  1.00  0.00     0.001 A 
HETATM   30  C7  UNL     1      22.130   7.413  -6.496  1.00  0.00     0.011 A 
BRANCH  17  31
HETATM   31  C34 UNL     1      18.073  12.902  -9.747  1.00  0.00     0.073 C 
BRANCH  31  32
HETATM   32  C35 UNL     1      18.155  14.087 -10.674  1.00  0.00    -0.056 A 
HETATM   33  C36 UNL     1      18.001  13.913 -12.060  1.00  0.00     0.007 A 
HETATM   34  C37 UNL     1      18.100  15.009 -12.923  1.00  0.00     0.001 A 
HETATM   35  C38 UNL     1      18.367  16.281 -12.412  1.00  0.00     0.000 A 
HETATM   36  C39 UNL     1      18.535  16.461 -11.036  1.00  0.00     0.001 A 
HETATM   37  C40 UNL     1      18.434  15.368 -10.168  1.00  0.00     0.007 A 
ENDBRANCH  31  32
ENDBRANCH  17  31
ENDBRANCH   1  11
BRANCH   5  38
HETATM   38  C14 UNL     1      17.204   5.723  -1.817  1.00  0.00     0.075 C 
BRANCH  38  39
HETATM   39  C15 UNL     1      16.410   6.646  -0.863  1.00  0.00     0.181 C 
HETATM   40  C16 UNL     1      14.973   6.840  -1.288  1.00  0.00     0.241 C 
HETATM   41  O1  UNL     1      14.649   6.797  -2.505  1.00  0.00    -0.271 OA
HETATM   42  N4  UNL     1      13.975   7.160  -0.312  1.00  0.00    -0.346 N 
HETATM   43  C17 UNL     1      14.284   7.318   1.111  1.00  0.00     0.180 C 
HETATM   44  H12 UNL     1      13.007   7.384  -0.637  1.00  0.00     0.163 HD
HETATM   45  C25 UNL     1      15.505   6.521   1.496  1.00  0.00     0.241 C 
HETATM   46  N5  UNL     1      16.456   6.117   0.503  1.00  0.00    -0.346 N 
HETATM   47  O2  UNL     1      15.692   6.209   2.703  1.00  0.00    -0.271 OA
HETATM   48  H21 UNL     1      17.289   5.570   0.818  1.00  0.00     0.163 HD
BRANCH  43  49
HETATM   49  C18 UNL     1      14.417   8.809   1.485  1.00  0.00     0.073 C 
BRANCH  49  50
HETATM   50  C19 UNL     1      13.905   9.128   2.870  1.00  0.00    -0.056 A 
HETATM   51  C20 UNL     1      12.543   9.412   3.076  1.00  0.00     0.007 A 
HETATM   52  C21 UNL     1      12.080   9.752   4.353  1.00  0.00     0.001 A 
HETATM   53  C22 UNL     1      12.968   9.803   5.430  1.00  0.00     0.000 A 
HETATM   54  C23 UNL     1      14.323   9.520   5.233  1.00  0.00     0.001 A 
HETATM   55  C24 UNL     1      14.792   9.184   3.959  1.00  0.00     0.007 A 
ENDBRANCH  49  50
ENDBRANCH  43  49
ENDBRANCH  38  39
ENDBRANCH   5  38
TORSDOF 7
ENDMDL
MODEL 14
REMARK VINA RESULT:     -10.9      7.976     11.839
REMARK  7 active torsions:
REMARK  status: ('A' for Active; 'I' for Inactive)
REMARK    1  A    between atoms: C9_11  and  C10_12 
REMARK    2  A    between atoms: C13_16  and  C14_17 
REMARK    3  A    between atoms: C14_17  and  C15_18 
REMARK    4  A    between atoms: C17_22  and  C18_23 
REMARK    5  A    between atoms: C18_23  and  C19_24 
REMARK    6  A    between atoms: C33_42  and  C34_43 
REMARK    7  A    between atoms: C34_43  and  C35_44 
ROOT
HETATM    1  C10 UNL     1      23.047  -0.145  -4.857  1.00  0.00    -0.013 A 
HETATM    2  C11 UNL     1      22.321   0.777  -4.064  1.00  0.00     0.050 A 
HETATM    3  N3  UNL     1      22.682   1.337  -2.889  1.00  0.00    -0.364 N 
HETATM    4  C12 UNL     1      21.661   2.136  -2.510  1.00  0.00     0.096 A 
HETATM    5  C13 UNL     1      20.642   2.098  -3.448  1.00  0.00    -0.028 A 
HETATM    6  C26 UNL     1      21.081   1.241  -4.439  1.00  0.00    -0.001 A 
HETATM    7  C27 UNL     1      20.479   0.865  -5.634  1.00  0.00     0.014 A 
HETATM    8  C28 UNL     1      22.439  -0.513  -6.090  1.00  0.00     0.011 A 
HETATM    9  C29 UNL     1      21.175  -0.017  -6.465  1.00  0.00     0.002 A 
HETATM   10  H7  UNL     1      23.568   1.211  -2.359  1.00  0.00     0.165 HD
ENDROOT
BRANCH   1  11
HETATM   11  C9  UNL     1      24.424  -0.692  -4.426  1.00  0.00     0.059 A 
HETATM   12  C2  UNL     1      24.413  -1.126  -2.928  1.00  0.00     0.206 A 
HETATM   13  N1  UNL     1      24.935  -2.484  -2.908  1.00  0.00    -0.314 N 
HETATM   14  N2  UNL     1      25.329  -0.222  -2.231  1.00  0.00    -0.367 N 
HETATM   15  C1  UNL     1      25.407  -3.134  -1.718  1.00  0.00     0.245 C 
HETATM   16  C31 UNL     1      25.223  -3.035  -4.224  1.00  0.00     0.183 A 
HETATM   17  C33 UNL     1      26.464  -4.200  -1.828  1.00  0.00     0.181 C 
HETATM   18  O4  UNL     1      24.940  -2.818  -0.591  1.00  0.00    -0.271 OA
HETATM   19  N6  UNL     1      27.251  -4.002  -3.054  1.00  0.00    -0.346 N 
HETATM   20  C32 UNL     1      26.654  -3.502  -4.259  1.00  0.00     0.241 C 
HETATM   21  H28 UNL     1      28.246  -4.325  -3.074  1.00  0.00     0.163 HD
HETATM   22  O3  UNL     1      27.302  -3.533  -5.339  1.00  0.00    -0.271 OA
HETATM   23  C30 UNL     1      24.870  -1.935  -5.240  1.00  0.00     0.058 A 
HETATM   24  C3  UNL     1      25.984   0.585  -3.180  1.00  0.00     0.037 A 
HETATM   25  H2  UNL     1      25.547  -0.244  -1.210  1.00  0.00     0.161 HD
HETATM   26  C4  UNL     1      27.027   1.475  -2.925  1.00  0.00     0.030 A 
HETATM   27  C8  UNL     1      25.526   0.348  -4.445  1.00  0.00    -0.015 A 
HETATM   28  C5  UNL     1      27.615   2.139  -4.013  1.00  0.00     0.002 A 
HETATM   29  C6  UNL     1      27.162   1.891  -5.322  1.00  0.00     0.001 A 
HETATM   30  C7  UNL     1      26.115   0.982  -5.547  1.00  0.00     0.011 A 
BRANCH  17  31
HETATM   31  C34 UNL     1      25.810  -5.593  -1.826  1.00  0.00     0.073 C 
BRANCH  31  32
HETATM   32  C35 UNL     1      26.294  -6.423  -0.666  1.00  0.00    -0.056 A 
HETATM   33  C36 UNL     1      25.811  -7.730  -0.481  1.00  0.00     0.007 A 
HETATM   34  C37 UNL     1      26.243  -8.493   0.608  1.00  0.00     0.001 A 
HETATM   35  C38 UNL     1      27.147  -7.954   1.527  1.00  0.00     0.000 A 
HETATM   36  C39 UNL     1      27.621  -6.650   1.358  1.00  0.00     0.001 A 
HETATM   37  C40 UNL     1      27.195  -5.883   0.269  1.00  0.00     0.007 A 
ENDBRANCH  31  32
ENDBRANCH  17  31
ENDBRANCH   1  11
BRANCH   5  38
HETATM   38  C14 UNL     1      19.317   2.804  -3.363  1.00  0.00     0.075 C 
BRANCH  38  39
HETATM   39  C15 UNL     1      19.450   4.314  -3.664  1.00  0.00     0.181 C 
HETATM   40  C16 UNL     1      18.125   5.040  -3.648  1.00  0.00     0.241 C 
HETATM   41  O1  UNL     1      17.060   4.446  -3.967  1.00  0.00    -0.271 OA
HETATM   42  N4  UNL     1      18.079   6.440  -3.348  1.00  0.00    -0.346 N 
HETATM   43  C17 UNL     1      19.281   7.225  -3.055  1.00  0.00     0.180 C 
HETATM   44  H12 UNL     1      17.167   6.944  -3.435  1.00  0.00     0.163 HD
HETATM   45  C25 UNL     1      20.375   6.355  -2.490  1.00  0.00     0.241 C 
HETATM   46  N5  UNL     1      20.369   4.940  -2.709  1.00  0.00    -0.346 N 
HETATM   47  O2  UNL     1      21.307   6.880  -1.822  1.00  0.00    -0.271 OA
HETATM   48  H21 UNL     1      21.152   4.378  -2.303  1.00  0.00     0.163 HD
BRANCH  43  49
HETATM   49  C18 UNL     1      19.742   8.013  -4.298  1.00  0.00     0.073 C 
BRANCH  49  50
HETATM   50  C19 UNL     1      20.960   8.869  -4.048  1.00  0.00    -0.056 A 
HETATM   51  C20 UNL     1      20.891   9.965  -3.169  1.00  0.00     0.007 A 
HETATM   52  C21 UNL     1      22.010  10.784  -2.974  1.00  0.00     0.001 A 
HETATM   53  C22 UNL     1      23.203  10.511  -3.646  1.00  0.00     0.000 A 
HETATM   54  C23 UNL     1      23.281   9.423  -4.521  1.00  0.00     0.001 A 
HETATM   55  C24 UNL     1      22.165   8.603  -4.722  1.00  0.00     0.007 A 
ENDBRANCH  49  50
ENDBRANCH  43  49
ENDBRANCH  38  39
ENDBRANCH   5  38
TORSDOF 7
ENDMDL
MODEL 15
REMARK VINA RESULT:     -10.8      8.548     14.545
REMARK  7 active torsions:
REMARK  status: ('A' for Active; 'I' for Inactive)
REMARK    1  A    between atoms: C9_11  and  C10_12 
REMARK    2  A    between atoms: C13_16  and  C14_17 
REMARK    3  A    between atoms: C14_17  and  C15_18 
REMARK    4  A    between atoms: C17_22  and  C18_23 
REMARK    5  A    between atoms: C18_23  and  C19_24 
REMARK    6  A    between atoms: C33_42  and  C34_43 
REMARK    7  A    between atoms: C34_43  and  C35_44 
ROOT
HETATM    1  C10 UNL     1      18.055  12.341   7.530  1.00  0.00    -0.013 A 
HETATM    2  C11 UNL     1      17.288  11.152   7.603  1.00  0.00     0.050 A 
HETATM    3  N3  UNL     1      17.689   9.918   7.978  1.00  0.00    -0.364 N 
HETATM    4  C12 UNL     1      16.611   9.111   7.872  1.00  0.00     0.096 A 
HETATM    5  C13 UNL     1      15.509   9.829   7.437  1.00  0.00    -0.028 A 
HETATM    6  C26 UNL     1      15.949  11.129   7.283  1.00  0.00    -0.001 A 
HETATM    7  C27 UNL     1      15.258  12.275   6.905  1.00  0.00     0.014 A 
HETATM    8  C28 UNL     1      17.341  13.516   7.163  1.00  0.00     0.011 A 
HETATM    9  C29 UNL     1      15.968  13.477   6.853  1.00  0.00     0.002 A 
HETATM   10  H7  UNL     1      18.630   9.616   8.302  1.00  0.00     0.165 HD
ENDROOT
BRANCH   1  11
HETATM   11  C9  UNL     1      19.563  12.365   7.858  1.00  0.00     0.059 A 
HETATM   12  C2  UNL     1      19.840  11.768   9.272  1.00  0.00     0.206 A 
HETATM   13  N1  UNL     1      20.873  10.762   9.079  1.00  0.00    -0.314 N 
HETATM   14  N2  UNL     1      20.353  12.869  10.091  1.00  0.00    -0.367 N 
HETATM   15  C1  UNL     1      21.655  10.214  10.151  1.00  0.00     0.245 C 
HETATM   16  C31 UNL     1      21.265  10.564   7.692  1.00  0.00     0.183 A 
HETATM   17  C33 UNL     1      23.045   9.710   9.869  1.00  0.00     0.181 C 
HETATM   18  O4  UNL     1      21.184  10.152  11.319  1.00  0.00    -0.271 OA
HETATM   19  N6  UNL     1      23.591  10.381   8.680  1.00  0.00    -0.346 N 
HETATM   20  C32 UNL     1      22.755  10.744   7.571  1.00  0.00     0.241 C 
HETATM   21  H28 UNL     1      24.626  10.508   8.600  1.00  0.00     0.163 HD
HETATM   22  O3  UNL     1      23.278  11.132   6.493  1.00  0.00    -0.271 OA
HETATM   23  C30 UNL     1      20.419  11.543   6.859  1.00  0.00     0.058 A 
HETATM   24  C3  UNL     1      20.548  13.995   9.270  1.00  0.00     0.037 A 
HETATM   25  H2  UNL     1      20.635  12.802  11.094  1.00  0.00     0.161 HD
HETATM   26  C4  UNL     1      21.150  15.195   9.647  1.00  0.00     0.030 A 
HETATM   27  C8  UNL     1      20.137  13.761   7.988  1.00  0.00    -0.015 A 
HETATM   28  C5  UNL     1      21.333  16.184   8.667  1.00  0.00     0.002 A 
HETATM   29  C6  UNL     1      20.927  15.948   7.340  1.00  0.00     0.001 A 
HETATM   30  C7  UNL     1      20.332  14.725   6.990  1.00  0.00     0.011 A 
BRANCH  17  31
HETATM   31  C34 UNL     1      23.023   8.186   9.665  1.00  0.00     0.073 C 
BRANCH  31  32
HETATM   32  C35 UNL     1      23.964   7.492  10.614  1.00  0.00    -0.056 A 
HETATM   33  C36 UNL     1      23.656   6.213  11.108  1.00  0.00     0.007 A 
HETATM   34  C37 UNL     1      24.519   5.578  12.006  1.00  0.00     0.001 A 
HETATM   35  C38 UNL     1      25.687   6.218  12.428  1.00  0.00     0.000 A 
HETATM   36  C39 UNL     1      25.994   7.496  11.952  1.00  0.00     0.001 A 
HETATM   37  C40 UNL     1      25.136   8.135  11.051  1.00  0.00     0.007 A 
ENDBRANCH  31  32
ENDBRANCH  17  31
ENDBRANCH   1  11
BRANCH   5  38
HETATM   38  C14 UNL     1      14.140   9.281   7.143  1.00  0.00     0.075 C 
BRANCH  38  39
HETATM   39  C15 UNL     1      14.123   8.439   5.847  1.00  0.00     0.181 C 
HETATM   40  C16 UNL     1      12.760   8.380   5.198  1.00  0.00     0.241 C 
HETATM   41  O1  UNL     1      11.711   8.452   5.892  1.00  0.00    -0.271 OA
HETATM   42  N4  UNL     1      12.648   8.157   3.787  1.00  0.00    -0.346 N 
HETATM   43  C17 UNL     1      13.816   7.974   2.922  1.00  0.00     0.180 C 
HETATM   44  H12 UNL     1      11.698   8.025   3.372  1.00  0.00     0.163 HD
HETATM   45  C25 UNL     1      15.033   8.653   3.496  1.00  0.00     0.241 C 
HETATM   46  N5  UNL     1      15.105   8.963   4.893  1.00  0.00    -0.346 N 
HETATM   47  O2  UNL     1      15.999   8.947   2.741  1.00  0.00    -0.271 OA
HETATM   48  H21 UNL     1      15.971   9.430   5.247  1.00  0.00     0.163 HD
BRANCH  43  49
HETATM   49  C18 UNL     1      14.061   6.478   2.636  1.00  0.00     0.073 C 
BRANCH  49  50
HETATM   50  C19 UNL     1      14.110   6.149   1.162  1.00  0.00    -0.056 A 
HETATM   51  C20 UNL     1      13.835   4.844   0.715  1.00  0.00     0.007 A 
HETATM   52  C21 UNL     1      13.927   4.532  -0.646  1.00  0.00     0.001 A 
HETATM   53  C22 UNL     1      14.285   5.519  -1.569  1.00  0.00     0.000 A 
HETATM   54  C23 UNL     1      14.559   6.818  -1.133  1.00  0.00     0.001 A 
HETATM   55  C24 UNL     1      14.473   7.135   0.228  1.00  0.00     0.007 A 
ENDBRANCH  49  50
ENDBRANCH  43  49
ENDBRANCH  38  39
ENDBRANCH   5  38
TORSDOF 7
ENDMDL
MODEL 16
REMARK VINA RESULT:     -10.8      2.289      4.864
REMARK  7 active torsions:
REMARK  status: ('A' for Active; 'I' for Inactive)
REMARK    1  A    between atoms: C9_11  and  C10_12 
REMARK    2  A    between atoms: C13_16  and  C14_17 
REMARK    3  A    between atoms: C14_17  and  C15_18 
REMARK    4  A    between atoms: C17_22  and  C18_23 
REMARK    5  A    between atoms: C18_23  and  C19_24 
REMARK    6  A    between atoms: C33_42  and  C34_43 
REMARK    7  A    between atoms: C34_43  and  C35_44 
ROOT
HETATM    1  C10 UNL     1      17.350   5.812  -6.410  1.00  0.00    -0.013 A 
HETATM    2  C11 UNL     1      16.811   6.042  -5.120  1.00  0.00     0.050 A 
HETATM    3  N3  UNL     1      16.667   7.217  -4.470  1.00  0.00    -0.364 N 
HETATM    4  C12 UNL     1      16.121   6.932  -3.268  1.00  0.00     0.096 A 
HETATM    5  C13 UNL     1      15.904   5.569  -3.146  1.00  0.00    -0.028 A 
HETATM    6  C26 UNL     1      16.333   5.016  -4.337  1.00  0.00    -0.001 A 
HETATM    7  C27 UNL     1      16.315   3.697  -4.775  1.00  0.00     0.014 A 
HETATM    8  C28 UNL     1      17.311   4.464  -6.864  1.00  0.00     0.011 A 
HETATM    9  C29 UNL     1      16.806   3.428  -6.055  1.00  0.00     0.002 A 
HETATM   10  H7  UNL     1      16.905   8.173  -4.804  1.00  0.00     0.165 HD
ENDROOT
BRANCH   1  11
HETATM   11  C9  UNL     1      17.914   6.955  -7.279  1.00  0.00     0.059 A 
HETATM   12  C2  UNL     1      18.492   8.102  -6.393  1.00  0.00     0.206 A 
HETATM   13  N1  UNL     1      19.837   8.345  -6.892  1.00  0.00    -0.314 N 
HETATM   14  N2  UNL     1      17.646   9.272  -6.632  1.00  0.00    -0.367 N 
HETATM   15  C1  UNL     1      20.592   9.528  -6.591  1.00  0.00     0.245 C 
HETATM   16  C31 UNL     1      20.253   7.444  -7.956  1.00  0.00     0.183 A 
HETATM   17  C33 UNL     1      21.626  10.014  -7.571  1.00  0.00     0.181 C 
HETATM   18  O4  UNL     1      20.394  10.155  -5.516  1.00  0.00    -0.271 OA
HETATM   19  N6  UNL     1      21.298   9.540  -8.923  1.00  0.00    -0.346 N 
HETATM   20  C32 UNL     1      20.693   8.258  -9.145  1.00  0.00     0.241 C 
HETATM   21  H28 UNL     1      21.602  10.108  -9.747  1.00  0.00     0.163 HD
HETATM   22  O3  UNL     1      20.608   7.798 -10.315  1.00  0.00    -0.271 OA
HETATM   23  C30 UNL     1      19.066   6.501  -8.214  1.00  0.00     0.058 A 
HETATM   24  C3  UNL     1      16.741   8.977  -7.668  1.00  0.00     0.037 A 
HETATM   25  H2  UNL     1      17.764  10.210  -6.188  1.00  0.00     0.161 HD
HETATM   26  C4  UNL     1      15.863   9.875  -8.277  1.00  0.00     0.030 A 
HETATM   27  C8  UNL     1      16.861   7.683  -8.089  1.00  0.00    -0.015 A 
HETATM   28  C5  UNL     1      15.088   9.419  -9.354  1.00  0.00     0.002 A 
HETATM   29  C6  UNL     1      15.215   8.092  -9.806  1.00  0.00     0.001 A 
HETATM   30  C7  UNL     1      16.114   7.215  -9.178  1.00  0.00     0.011 A 
BRANCH  17  31
HETATM   31  C34 UNL     1      23.022   9.523  -7.151  1.00  0.00     0.073 C 
BRANCH  31  32
HETATM   32  C35 UNL     1      23.093   9.277  -5.667  1.00  0.00    -0.056 A 
HETATM   33  C36 UNL     1      23.038   7.966  -5.164  1.00  0.00     0.007 A 
HETATM   34  C37 UNL     1      23.082   7.738  -3.785  1.00  0.00     0.001 A 
HETATM   35  C38 UNL     1      23.166   8.815  -2.899  1.00  0.00     0.000 A 
HETATM   36  C39 UNL     1      23.206  10.123  -3.391  1.00  0.00     0.001 A 
HETATM   37  C40 UNL     1      23.167  10.356  -4.769  1.00  0.00     0.007 A 
ENDBRANCH  31  32
ENDBRANCH  17  31
ENDBRANCH   1  11
BRANCH   5  38
HETATM   38  C14 UNL     1      15.364   4.850  -1.941  1.00  0.00     0.075 C 
BRANCH  38  39
HETATM   39  C15 UNL     1      14.858   5.836  -0.863  1.00  0.00     0.181 C 
HETATM   40  C16 UNL     1      14.293   5.141   0.355  1.00  0.00     0.241 C 
HETATM   41  O1  UNL     1      13.747   4.010   0.257  1.00  0.00    -0.271 OA
HETATM   42  N4  UNL     1      14.301   5.804   1.625  1.00  0.00    -0.346 N 
HETATM   43  C17 UNL     1      14.837   7.156   1.807  1.00  0.00     0.180 C 
HETATM   44  H12 UNL     1      13.822   5.348   2.434  1.00  0.00     0.163 HD
HETATM   45  C25 UNL     1      15.885   7.471   0.771  1.00  0.00     0.241 C 
HETATM   46  N5  UNL     1      15.937   6.742  -0.461  1.00  0.00    -0.346 N 
HETATM   47  O2  UNL     1      16.723   8.389   0.989  1.00  0.00    -0.271 OA
HETATM   48  H21 UNL     1      16.679   6.999  -1.152  1.00  0.00     0.163 HD
BRANCH  43  49
HETATM   49  C18 UNL     1      13.701   8.200   1.827  1.00  0.00     0.073 C 
BRANCH  49  50
HETATM   50  C19 UNL     1      13.640   8.994   3.110  1.00  0.00    -0.056 A 
HETATM   51  C20 UNL     1      12.486   9.731   3.437  1.00  0.00     0.007 A 
HETATM   52  C21 UNL     1      12.450  10.502   4.604  1.00  0.00     0.001 A 
HETATM   53  C22 UNL     1      13.558  10.537   5.455  1.00  0.00     0.000 A 
HETATM   54  C23 UNL     1      14.707   9.808   5.139  1.00  0.00     0.001 A 
HETATM   55  C24 UNL     1      14.751   9.039   3.971  1.00  0.00     0.007 A 
ENDBRANCH  49  50
ENDBRANCH  43  49
ENDBRANCH  38  39
ENDBRANCH   5  38
TORSDOF 7
ENDMDL
MODEL 17
REMARK VINA RESULT:     -10.6      2.923     11.195
REMARK  7 active torsions:
REMARK  status: ('A' for Active; 'I' for Inactive)
REMARK    1  A    between atoms: C9_11  and  C10_12 
REMARK    2  A    between atoms: C13_16  and  C14_17 
REMARK    3  A    between atoms: C14_17  and  C15_18 
REMARK    4  A    between atoms: C17_22  and  C18_23 
REMARK    5  A    between atoms: C18_23  and  C19_24 
REMARK    6  A    between atoms: C33_42  and  C34_43 
REMARK    7  A    between atoms: C34_43  and  C35_44 
ROOT
HETATM    1  C10 UNL     1      18.371   5.698  -6.129  1.00  0.00    -0.013 A 
HETATM    2  C11 UNL     1      17.615   6.816  -6.561  1.00  0.00     0.050 A 
HETATM    3  N3  UNL     1      16.588   7.426  -5.931  1.00  0.00    -0.364 N 
HETATM    4  C12 UNL     1      16.180   8.431  -6.736  1.00  0.00     0.096 A 
HETATM    5  C13 UNL     1      16.954   8.475  -7.885  1.00  0.00    -0.028 A 
HETATM    6  C26 UNL     1      17.872   7.451  -7.754  1.00  0.00    -0.001 A 
HETATM    7  C27 UNL     1      18.910   7.061  -8.592  1.00  0.00     0.014 A 
HETATM    8  C28 UNL     1      19.446   5.314  -6.978  1.00  0.00     0.011 A 
HETATM    9  C29 UNL     1      19.704   5.984  -8.189  1.00  0.00     0.002 A 
HETATM   10  H7  UNL     1      16.175   7.202  -5.003  1.00  0.00     0.165 HD
ENDROOT
BRANCH   1  11
HETATM   11  C9  UNL     1      18.067   4.964  -4.806  1.00  0.00     0.059 A 
HETATM   12  C2  UNL     1      18.302   5.897  -3.578  1.00  0.00     0.206 A 
HETATM   13  N1  UNL     1      17.082   5.823  -2.788  1.00  0.00    -0.314 N 
HETATM   14  N2  UNL     1      19.423   5.321  -2.833  1.00  0.00    -0.367 N 
HETATM   15  C1  UNL     1      16.996   6.255  -1.422  1.00  0.00     0.245 C 
HETATM   16  C31 UNL     1      16.032   5.011  -3.383  1.00  0.00     0.183 A 
HETATM   17  C33 UNL     1      15.991   5.610  -0.506  1.00  0.00     0.181 C 
HETATM   18  O4  UNL     1      17.753   7.165  -0.991  1.00  0.00    -0.271 OA
HETATM   19  N6  UNL     1      15.661   4.262  -0.991  1.00  0.00    -0.346 N 
HETATM   20  C32 UNL     1      15.604   3.959  -2.393  1.00  0.00     0.241 C 
HETATM   21  H28 UNL     1      15.367   3.533  -0.301  1.00  0.00     0.163 HD
HETATM   22  O3  UNL     1      15.127   2.859  -2.778  1.00  0.00    -0.271 OA
HETATM   23  C30 UNL     1      16.600   4.468  -4.706  1.00  0.00     0.058 A 
HETATM   24  C3  UNL     1      19.761   4.080  -3.404  1.00  0.00     0.037 A 
HETATM   25  H2  UNL     1      19.833   5.709  -1.954  1.00  0.00     0.161 HD
HETATM   26  C4  UNL     1      20.684   3.164  -2.899  1.00  0.00     0.030 A 
HETATM   27  C8  UNL     1      19.010   3.815  -4.514  1.00  0.00    -0.015 A 
HETATM   28  C5  UNL     1      20.834   1.937  -3.562  1.00  0.00     0.002 A 
HETATM   29  C6  UNL     1      20.055   1.647  -4.698  1.00  0.00     0.001 A 
HETATM   30  C7  UNL     1      19.127   2.586  -5.177  1.00  0.00     0.011 A 
BRANCH  17  31
HETATM   31  C34 UNL     1      14.723   6.477  -0.421  1.00  0.00     0.073 C 
BRANCH  31  32
HETATM   32  C35 UNL     1      14.575   7.099   0.943  1.00  0.00    -0.056 A 
HETATM   33  C36 UNL     1      13.637   6.588   1.856  1.00  0.00     0.007 A 
HETATM   34  C37 UNL     1      13.484   7.178   3.114  1.00  0.00     0.001 A 
HETATM   35  C38 UNL     1      14.254   8.290   3.465  1.00  0.00     0.000 A 
HETATM   36  C39 UNL     1      15.180   8.813   2.557  1.00  0.00     0.001 A 
HETATM   37  C40 UNL     1      15.339   8.224   1.299  1.00  0.00     0.007 A 
ENDBRANCH  31  32
ENDBRANCH  17  31
ENDBRANCH   1  11
BRANCH   5  38
HETATM   38  C14 UNL     1      16.780   9.412  -9.048  1.00  0.00     0.075 C 
BRANCH  38  39
HETATM   39  C15 UNL     1      18.031  10.294  -9.267  1.00  0.00     0.181 C 
HETATM   40  C16 UNL     1      18.685  10.069 -10.611  1.00  0.00     0.241 C 
HETATM   41  O1  UNL     1      18.623   8.945 -11.178  1.00  0.00    -0.271 OA
HETATM   42  N4  UNL     1      19.456  11.113 -11.215  1.00  0.00    -0.346 N 
HETATM   43  C17 UNL     1      19.652  12.419 -10.580  1.00  0.00     0.180 C 
HETATM   44  H12 UNL     1      19.978  10.908 -12.098  1.00  0.00     0.163 HD
HETATM   45  C25 UNL     1      18.515  12.747  -9.646  1.00  0.00     0.241 C 
HETATM   46  N5  UNL     1      17.683  11.709  -9.116  1.00  0.00    -0.346 N 
HETATM   47  O2  UNL     1      18.298  13.947  -9.325  1.00  0.00    -0.271 OA
HETATM   48  H21 UNL     1      16.910  11.985  -8.468  1.00  0.00     0.163 HD
BRANCH  43  49
HETATM   49  C18 UNL     1      21.025  12.491  -9.879  1.00  0.00     0.073 C 
BRANCH  49  50
HETATM   50  C19 UNL     1      21.503  11.156  -9.359  1.00  0.00    -0.056 A 
HETATM   51  C20 UNL     1      22.238  10.290 -10.191  1.00  0.00     0.007 A 
HETATM   52  C21 UNL     1      22.640   9.035  -9.720  1.00  0.00     0.001 A 
HETATM   53  C22 UNL     1      22.320   8.639  -8.419  1.00  0.00     0.000 A 
HETATM   54  C23 UNL     1      21.591   9.493  -7.586  1.00  0.00     0.001 A 
HETATM   55  C24 UNL     1      21.183  10.748  -8.053  1.00  0.00     0.007 A 
ENDBRANCH  49  50
ENDBRANCH  43  49
ENDBRANCH  38  39
ENDBRANCH   5  38
TORSDOF 7
ENDMDL
MODEL 18
REMARK VINA RESULT:     -10.6      4.856     11.505
REMARK  7 active torsions:
REMARK  status: ('A' for Active; 'I' for Inactive)
REMARK    1  A    between atoms: C9_11  and  C10_12 
REMARK    2  A    between atoms: C13_16  and  C14_17 
REMARK    3  A    between atoms: C14_17  and  C15_18 
REMARK    4  A    between atoms: C17_22  and  C18_23 
REMARK    5  A    between atoms: C18_23  and  C19_24 
REMARK    6  A    between atoms: C33_42  and  C34_43 
REMARK    7  A    between atoms: C34_43  and  C35_44 
ROOT
HETATM    1  C10 UNL     1      22.054   6.879  -6.273  1.00  0.00    -0.013 A 
HETATM    2  C11 UNL     1      21.841   5.644  -6.933  1.00  0.00     0.050 A 
HETATM    3  N3  UNL     1      20.937   4.684  -6.643  1.00  0.00    -0.364 N 
HETATM    4  C12 UNL     1      21.124   3.690  -7.538  1.00  0.00     0.096 A 
HETATM    5  C13 UNL     1      22.147   4.014  -8.414  1.00  0.00    -0.028 A 
HETATM    6  C26 UNL     1      22.585   5.266  -8.028  1.00  0.00    -0.001 A 
HETATM    7  C27 UNL     1      23.564   6.086  -8.577  1.00  0.00     0.014 A 
HETATM    8  C28 UNL     1      23.042   7.726  -6.850  1.00  0.00     0.011 A 
HETATM    9  C29 UNL     1      23.784   7.329  -7.979  1.00  0.00     0.002 A 
HETATM   10  H7  UNL     1      20.214   4.683  -5.894  1.00  0.00     0.165 HD
ENDROOT
BRANCH   1  11
HETATM   11  C9  UNL     1      21.243   7.294  -5.027  1.00  0.00     0.059 A 
HETATM   12  C2  UNL     1      19.784   7.688  -5.412  1.00  0.00     0.206 A 
HETATM   13  N1  UNL     1      18.922   6.911  -4.534  1.00  0.00    -0.314 N 
HETATM   14  N2  UNL     1      19.651   9.116  -5.116  1.00  0.00    -0.367 N 
HETATM   15  C1  UNL     1      17.534   7.210  -4.319  1.00  0.00     0.245 C 
HETATM   16  C31 UNL     1      19.632   5.988  -3.662  1.00  0.00     0.183 A 
HETATM   17  C33 UNL     1      16.891   6.828  -3.013  1.00  0.00     0.181 C 
HETATM   18  O4  UNL     1      16.859   7.785  -5.214  1.00  0.00    -0.271 OA
HETATM   19  N6  UNL     1      17.911   6.736  -1.958  1.00  0.00    -0.346 N 
HETATM   20  C32 UNL     1      19.237   6.260  -2.234  1.00  0.00     0.241 C 
HETATM   21  H28 UNL     1      17.635   6.928  -0.968  1.00  0.00     0.163 HD
HETATM   22  O3  UNL     1      20.021   6.004  -1.282  1.00  0.00    -0.271 OA
HETATM   23  C30 UNL     1      21.129   6.165  -3.970  1.00  0.00     0.058 A 
HETATM   24  C3  UNL     1      20.817   9.556  -4.461  1.00  0.00     0.037 A 
HETATM   25  H2  UNL     1      18.792   9.691  -5.262  1.00  0.00     0.161 HD
HETATM   26  C4  UNL     1      21.020  10.815  -3.897  1.00  0.00     0.030 A 
HETATM   27  C8  UNL     1      21.747   8.559  -4.364  1.00  0.00    -0.015 A 
HETATM   28  C5  UNL     1      22.222  11.050  -3.211  1.00  0.00     0.002 A 
HETATM   29  C6  UNL     1      23.181  10.027  -3.092  1.00  0.00     0.001 A 
HETATM   30  C7  UNL     1      22.943   8.766  -3.663  1.00  0.00     0.011 A 
BRANCH  17  31
HETATM   31  C34 UNL     1      16.147   5.490  -3.163  1.00  0.00     0.073 C 
BRANCH  31  32
HETATM   32  C35 UNL     1      15.232   5.238  -1.993  1.00  0.00    -0.056 A 
HETATM   33  C36 UNL     1      14.749   3.943  -1.739  1.00  0.00     0.007 A 
HETATM   34  C37 UNL     1      13.882   3.713  -0.666  1.00  0.00     0.001 A 
HETATM   35  C38 UNL     1      13.479   4.772   0.149  1.00  0.00     0.000 A 
HETATM   36  C39 UNL     1      13.943   6.066  -0.106  1.00  0.00     0.001 A 
HETATM   37  C40 UNL     1      14.814   6.302  -1.175  1.00  0.00     0.007 A 
ENDBRANCH  31  32
ENDBRANCH  17  31
ENDBRANCH   1  11
BRANCH   5  38
HETATM   38  C14 UNL     1      22.692   3.149  -9.516  1.00  0.00     0.075 C 
BRANCH  38  39
HETATM   39  C15 UNL     1      23.377   1.878  -8.964  1.00  0.00     0.181 C 
HETATM   40  C16 UNL     1      24.662   2.172  -8.225  1.00  0.00     0.241 C 
HETATM   41  O1  UNL     1      25.376   3.161  -8.540  1.00  0.00    -0.271 OA
HETATM   42  N4  UNL     1      25.124   1.275  -7.208  1.00  0.00    -0.346 N 
HETATM   43  C17 UNL     1      24.399   0.056  -6.842  1.00  0.00     0.180 C 
HETATM   44  H12 UNL     1      26.060   1.445  -6.775  1.00  0.00     0.163 HD
HETATM   45  C25 UNL     1      22.927   0.186  -7.138  1.00  0.00     0.241 C 
HETATM   46  N5  UNL     1      22.456   1.150  -8.086  1.00  0.00    -0.346 N 
HETATM   47  O2  UNL     1      22.103  -0.564  -6.548  1.00  0.00    -0.271 OA
HETATM   48  H21 UNL     1      21.426   1.201  -8.263  1.00  0.00     0.163 HD
BRANCH  43  49
HETATM   49  C18 UNL     1      25.025  -1.181  -7.519  1.00  0.00     0.073 C 
BRANCH  49  50
HETATM   50  C19 UNL     1      25.209  -2.350  -6.580  1.00  0.00    -0.056 A 
HETATM   51  C20 UNL     1      25.118  -3.670  -7.060  1.00  0.00     0.007 A 
HETATM   52  C21 UNL     1      25.243  -4.750  -6.179  1.00  0.00     0.001 A 
HETATM   53  C22 UNL     1      25.468  -4.523  -4.819  1.00  0.00     0.000 A 
HETATM   54  C23 UNL     1      25.560  -3.215  -4.334  1.00  0.00     0.001 A 
HETATM   55  C24 UNL     1      25.432  -2.131  -5.209  1.00  0.00     0.007 A 
ENDBRANCH  49  50
ENDBRANCH  43  49
ENDBRANCH  38  39
ENDBRANCH   5  38
TORSDOF 7
ENDMDL
MODEL 19
REMARK VINA RESULT:     -10.5     11.728     15.924
REMARK  7 active torsions:
REMARK  status: ('A' for Active; 'I' for Inactive)
REMARK    1  A    between atoms: C9_11  and  C10_12 
REMARK    2  A    between atoms: C13_16  and  C14_17 
REMARK    3  A    between atoms: C14_17  and  C15_18 
REMARK    4  A    between atoms: C17_22  and  C18_23 
REMARK    5  A    between atoms: C18_23  and  C19_24 
REMARK    6  A    between atoms: C33_42  and  C34_43 
REMARK    7  A    between atoms: C34_43  and  C35_44 
ROOT
HETATM    1  C10 UNL     1      22.864  -2.627  -5.499  1.00  0.00    -0.013 A 
HETATM    2  C11 UNL     1      21.997  -3.739  -5.355  1.00  0.00     0.050 A 
HETATM    3  N3  UNL     1      22.162  -4.834  -4.583  1.00  0.00    -0.364 N 
HETATM    4  C12 UNL     1      21.083  -5.620  -4.790  1.00  0.00     0.096 A 
HETATM    5  C13 UNL     1      20.216  -5.025  -5.692  1.00  0.00    -0.028 A 
HETATM    6  C26 UNL     1      20.802  -3.822  -6.033  1.00  0.00    -0.001 A 
HETATM    7  C27 UNL     1      20.353  -2.808  -6.871  1.00  0.00     0.014 A 
HETATM    8  C28 UNL     1      22.392  -1.580  -6.340  1.00  0.00     0.011 A 
HETATM    9  C29 UNL     1      21.160  -1.676  -7.015  1.00  0.00     0.002 A 
HETATM   10  H7  UNL     1      22.944  -5.055  -3.934  1.00  0.00     0.165 HD
ENDROOT
BRANCH   1  11
HETATM   11  C9  UNL     1      24.219  -2.543  -4.765  1.00  0.00     0.059 A 
HETATM   12  C2  UNL     1      24.020  -2.532  -3.218  1.00  0.00     0.206 A 
HETATM   13  N1  UNL     1      24.890  -3.577  -2.702  1.00  0.00    -0.314 N 
HETATM   14  N2  UNL     1      24.475  -1.220  -2.754  1.00  0.00    -0.367 N 
HETATM   15  C1  UNL     1      25.268  -3.683  -1.321  1.00  0.00     0.245 C 
HETATM   16  C31 UNL     1      25.589  -4.336  -3.728  1.00  0.00     0.183 A 
HETATM   17  C33 UNL     1      26.583  -4.323  -0.962  1.00  0.00     0.181 C 
HETATM   18  O4  UNL     1      24.508  -3.248  -0.415  1.00  0.00    -0.271 OA
HETATM   19  N6  UNL     1      27.519  -4.213  -2.091  1.00  0.00    -0.346 N 
HETATM   20  C32 UNL     1      27.069  -4.289  -3.452  1.00  0.00     0.241 C 
HETATM   21  H28 UNL     1      28.546  -4.178  -1.896  1.00  0.00     0.163 HD
HETATM   22  O3  UNL     1      27.909  -4.393  -4.385  1.00  0.00    -0.271 OA
HETATM   23  C30 UNL     1      25.158  -3.737  -5.078  1.00  0.00     0.058 A 
HETATM   24  C3  UNL     1      25.057  -0.531  -3.834  1.00  0.00     0.037 A 
HETATM   25  H2  UNL     1      24.474  -0.890  -1.763  1.00  0.00     0.161 HD
HETATM   26  C4  UNL     1      25.727   0.690  -3.767  1.00  0.00     0.030 A 
HETATM   27  C8  UNL     1      24.959  -1.242  -4.997  1.00  0.00    -0.015 A 
HETATM   28  C5  UNL     1      26.315   1.191  -4.940  1.00  0.00     0.002 A 
HETATM   29  C6  UNL     1      26.234   0.460  -6.140  1.00  0.00     0.001 A 
HETATM   30  C7  UNL     1      25.559  -0.771  -6.172  1.00  0.00     0.011 A 
BRANCH  17  31
HETATM   31  C34 UNL     1      26.367  -5.797  -0.582  1.00  0.00     0.073 C 
BRANCH  31  32
HETATM   32  C35 UNL     1      26.792  -6.065   0.838  1.00  0.00    -0.056 A 
HETATM   33  C36 UNL     1      27.481  -7.247   1.159  1.00  0.00     0.007 A 
HETATM   34  C37 UNL     1      27.857  -7.506   2.481  1.00  0.00     0.001 A 
HETATM   35  C38 UNL     1      27.536  -6.597   3.492  1.00  0.00     0.000 A 
HETATM   36  C39 UNL     1      26.839  -5.426   3.183  1.00  0.00     0.001 A 
HETATM   37  C40 UNL     1      26.464  -5.160   1.862  1.00  0.00     0.007 A 
ENDBRANCH  31  32
ENDBRANCH  17  31
ENDBRANCH   1  11
BRANCH   5  38
HETATM   38  C14 UNL     1      18.935  -5.607  -6.222  1.00  0.00     0.075 C 
BRANCH  38  39
HETATM   39  C15 UNL     1      18.994  -5.830  -7.751  1.00  0.00     0.181 C 
HETATM   40  C16 UNL     1      19.020  -7.292  -8.134  1.00  0.00     0.241 C 
HETATM   41  O1  UNL     1      19.540  -8.150  -7.371  1.00  0.00    -0.271 OA
HETATM   42  N4  UNL     1      18.525  -7.705  -9.413  1.00  0.00    -0.346 N 
HETATM   43  C17 UNL     1      17.987  -6.760 -10.395  1.00  0.00     0.180 C 
HETATM   44  H12 UNL     1      18.639  -8.704  -9.698  1.00  0.00     0.163 HD
HETATM   45  C25 UNL     1      17.437  -5.528  -9.721  1.00  0.00     0.241 C 
HETATM   46  N5  UNL     1      17.861  -5.167  -8.401  1.00  0.00    -0.346 N 
HETATM   47  O2  UNL     1      16.599  -4.807 -10.327  1.00  0.00    -0.271 OA
HETATM   48  H21 UNL     1      17.456  -4.302  -7.977  1.00  0.00     0.163 HD
BRANCH  43  49
HETATM   49  C18 UNL     1      19.042  -6.418 -11.468  1.00  0.00     0.073 C 
BRANCH  49  50
HETATM   50  C19 UNL     1      20.203  -5.615 -10.933  1.00  0.00    -0.056 A 
HETATM   51  C20 UNL     1      21.346  -6.264 -10.431  1.00  0.00     0.007 A 
HETATM   52  C21 UNL     1      22.401  -5.518  -9.893  1.00  0.00     0.001 A 
HETATM   53  C22 UNL     1      22.328  -4.123  -9.860  1.00  0.00     0.000 A 
HETATM   54  C23 UNL     1      21.196  -3.470 -10.358  1.00  0.00     0.001 A 
HETATM   55  C24 UNL     1      20.136  -4.211 -10.892  1.00  0.00     0.007 A 
ENDBRANCH  49  50
ENDBRANCH  43  49
ENDBRANCH  38  39
ENDBRANCH   5  38
TORSDOF 7
ENDMDL
MODEL 20
REMARK VINA RESULT:     -10.5     13.326     15.972
REMARK  7 active torsions:
REMARK  status: ('A' for Active; 'I' for Inactive)
REMARK    1  A    between atoms: C9_11  and  C10_12 
REMARK    2  A    between atoms: C13_16  and  C14_17 
REMARK    3  A    between atoms: C14_17  and  C15_18 
REMARK    4  A    between atoms: C17_22  and  C18_23 
REMARK    5  A    between atoms: C18_23  and  C19_24 
REMARK    6  A    between atoms: C33_42  and  C34_43 
REMARK    7  A    between atoms: C34_43  and  C35_44 
ROOT
HETATM    1  C10 UNL     1      22.057  -6.072  -8.149  1.00  0.00    -0.013 A 
HETATM    2  C11 UNL     1      22.472  -5.555  -6.896  1.00  0.00     0.050 A 
HETATM    3  N3  UNL     1      21.757  -5.451  -5.755  1.00  0.00    -0.364 N 
HETATM    4  C12 UNL     1      22.571  -4.885  -4.838  1.00  0.00     0.096 A 
HETATM    5  C13 UNL     1      23.817  -4.631  -5.387  1.00  0.00    -0.028 A 
HETATM    6  C26 UNL     1      23.746  -5.076  -6.693  1.00  0.00    -0.001 A 
HETATM    7  C27 UNL     1      24.715  -5.102  -7.689  1.00  0.00     0.014 A 
HETATM    8  C28 UNL     1      23.056  -6.117  -9.161  1.00  0.00     0.011 A 
HETATM    9  C29 UNL     1      24.359  -5.635  -8.931  1.00  0.00     0.002 A 
HETATM   10  H7  UNL     1      20.777  -5.750  -5.577  1.00  0.00     0.165 HD
ENDROOT
BRANCH   1  11
HETATM   11  C9  UNL     1      20.620  -6.583  -8.390  1.00  0.00     0.059 A 
HETATM   12  C2  UNL     1      19.576  -5.442  -8.185  1.00  0.00     0.206 A 
HETATM   13  N1  UNL     1      18.754  -5.441  -9.385  1.00  0.00    -0.314 N 
HETATM   14  N2  UNL     1      18.773  -5.823  -7.022  1.00  0.00    -0.367 N 
HETATM   15  C1  UNL     1      17.479  -4.787  -9.472  1.00  0.00     0.245 C 
HETATM   16  C31 UNL     1      19.174  -6.396 -10.400  1.00  0.00     0.183 A 
HETATM   17  C33 UNL     1      16.441  -5.315 -10.425  1.00  0.00     0.181 C 
HETATM   18  O4  UNL     1      17.230  -3.778  -8.759  1.00  0.00    -0.271 OA
HETATM   19  N6  UNL     1      16.680  -6.742 -10.688  1.00  0.00    -0.346 N 
HETATM   20  C32 UNL     1      18.008  -7.282 -10.753  1.00  0.00     0.241 C 
HETATM   21  H28 UNL     1      15.869  -7.355 -10.930  1.00  0.00     0.163 HD
HETATM   22  O3  UNL     1      18.188  -8.456 -11.175  1.00  0.00    -0.271 OA
HETATM   23  C30 UNL     1      20.399  -7.128  -9.825  1.00  0.00     0.058 A 
HETATM   24  C3  UNL     1      19.133  -7.125  -6.626  1.00  0.00     0.037 A 
HETATM   25  H2  UNL     1      17.984  -5.270  -6.619  1.00  0.00     0.161 HD
HETATM   26  C4  UNL     1      18.503  -7.892  -5.646  1.00  0.00     0.030 A 
HETATM   27  C8  UNL     1      20.162  -7.614  -7.380  1.00  0.00    -0.015 A 
HETATM   28  C5  UNL     1      18.951  -9.206  -5.440  1.00  0.00     0.002 A 
HETATM   29  C6  UNL     1      20.000  -9.726  -6.221  1.00  0.00     0.001 A 
HETATM   30  C7  UNL     1      20.608  -8.931  -7.207  1.00  0.00     0.011 A 
BRANCH  17  31
HETATM   31  C34 UNL     1      16.472  -4.512 -11.737  1.00  0.00     0.073 C 
BRANCH  31  32
HETATM   32  C35 UNL     1      15.387  -3.468 -11.765  1.00  0.00    -0.056 A 
HETATM   33  C36 UNL     1      15.708  -2.109 -11.610  1.00  0.00     0.007 A 
HETATM   34  C37 UNL     1      14.699  -1.141 -11.614  1.00  0.00     0.001 A 
HETATM   35  C38 UNL     1      13.363  -1.522 -11.759  1.00  0.00     0.000 A 
HETATM   36  C39 UNL     1      13.033  -2.873 -11.900  1.00  0.00     0.001 A 
HETATM   37  C40 UNL     1      14.039  -3.845 -11.900  1.00  0.00     0.007 A 
ENDBRANCH  31  32
ENDBRANCH  17  31
ENDBRANCH   1  11
BRANCH   5  38
HETATM   38  C14 UNL     1      24.979  -3.959  -4.707  1.00  0.00     0.075 C 
BRANCH  38  39
HETATM   39  C15 UNL     1      25.051  -4.319  -3.206  1.00  0.00     0.181 C 
HETATM   40  C16 UNL     1      26.339  -5.013  -2.825  1.00  0.00     0.241 C 
HETATM   41  O1  UNL     1      26.952  -5.735  -3.656  1.00  0.00    -0.271 OA
HETATM   42  N4  UNL     1      26.832  -4.921  -1.483  1.00  0.00    -0.346 N 
HETATM   43  C17 UNL     1      26.132  -4.175  -0.434  1.00  0.00     0.180 C 
HETATM   44  H12 UNL     1      27.671  -5.484  -1.216  1.00  0.00     0.163 HD
HETATM   45  C25 UNL     1      25.291  -3.069  -1.019  1.00  0.00     0.241 C 
HETATM   46  N5  UNL     1      24.878  -3.114  -2.390  1.00  0.00    -0.346 N 
HETATM   47  O2  UNL     1      24.945  -2.098  -0.293  1.00  0.00    -0.271 OA
HETATM   48  H21 UNL     1      24.291  -2.326  -2.750  1.00  0.00     0.163 HD
BRANCH  43  49
HETATM   49  C18 UNL     1      25.309  -5.125   0.462  1.00  0.00     0.073 C 
BRANCH  49  50
HETATM   50  C19 UNL     1      26.049  -6.388   0.835  1.00  0.00    -0.056 A 
HETATM   51  C20 UNL     1      25.565  -7.643   0.425  1.00  0.00     0.007 A 
HETATM   52  C21 UNL     1      26.227  -8.814   0.812  1.00  0.00     0.001 A 
HETATM   53  C22 UNL     1      27.377  -8.740   1.601  1.00  0.00     0.000 A 
HETATM   54  C23 UNL     1      27.865  -7.497   2.012  1.00  0.00     0.001 A 
HETATM   55  C24 UNL     1      27.205  -6.323   1.632  1.00  0.00     0.007 A 
ENDBRANCH  49  50
ENDBRANCH  43  49
ENDBRANCH  38  39
ENDBRANCH   5  38
TORSDOF 7
ENDMDL
