REMARK  5 active torsions:
REMARK  status: ('A' for Active; 'I' for Inactive)
REMARK    1  A    between atoms: C4_4  and  N1_7 
REMARK    2  A    between atoms: C8_9  and  C15_16 
REMARK    3  A    between atoms: C15_16  and  C16_17 
REMARK    4  A    between atoms: C24_30  and  C25_31 
REMARK    5  A    between atoms: C25_31  and  C26_32 
ROOT
HETATM    1  C1  UNL     1      -1.692  -2.015   2.334  1.00  0.00    -0.002 A 
HETATM    2  C2  UNL     1      -2.353  -1.929   1.137  1.00  0.00     0.045 A 
HETATM    3  C3  UNL     1      -1.678  -1.991  -0.080  1.00  0.00     0.060 A 
HETATM    4  C4  UNL     1      -0.276  -2.165  -0.058  1.00  0.00     0.041 A 
HETATM    5  C5  UNL     1       0.401  -2.249   1.186  1.00  0.00     0.031 A 
HETATM    6  C6  UNL     1      -0.310  -2.179   2.398  1.00  0.00     0.016 A 
HETATM    7  N4  UNL     1      -3.674  -1.767   1.327  1.00  0.00    -0.365 N 
HETATM    8  C23 UNL     1      -3.861  -1.750   2.666  1.00  0.00     0.096 A 
HETATM    9  C24 UNL     1      -2.645  -1.896   3.327  1.00  0.00    -0.028 A 
HETATM   10  H20 UNL     1      -4.410  -1.670   0.592  1.00  0.00     0.165 HD
ENDROOT
BRANCH   4  11
HETATM   11  N1  UNL     1       0.474  -2.196  -1.285  1.00  0.00    -0.321 N 
HETATM   12  C7  UNL     1       1.602  -1.488  -1.531  1.00  0.00     0.105 A 
HETATM   13  C8  UNL     1       2.033  -1.701  -2.834  1.00  0.00    -0.027 A 
HETATM   14  C9  UNL     1       1.119  -2.573  -3.396  1.00  0.00    -0.001 A 
HETATM   15  C10 UNL     1       0.189  -2.863  -2.427  1.00  0.00     0.050 A 
HETATM   16  C14 UNL     1       1.045  -3.121  -4.678  1.00  0.00     0.014 A 
HETATM   17  C11 UNL     1      -0.852  -3.766  -2.670  1.00  0.00     0.031 A 
HETATM   18  C12 UNL     1      -0.946  -4.338  -3.951  1.00  0.00     0.002 A 
HETATM   19  C13 UNL     1      -0.007  -4.011  -4.952  1.00  0.00     0.001 A 
BRANCH  13  20
HETATM   20  C15 UNL     1       3.202  -1.035  -3.502  1.00  0.00     0.075 C 
BRANCH  20  21
HETATM   21  C16 UNL     1       2.868   0.404  -3.933  1.00  0.00     0.181 C 
HETATM   22  N2  UNL     1       1.781   0.393  -4.923  1.00  0.00    -0.346 N 
HETATM   23  C17 UNL     1       1.928   0.791  -6.291  1.00  0.00     0.241 C 
HETATM   24  H12 UNL     1       0.847   0.034  -4.622  1.00  0.00     0.163 HD
HETATM   25  O1  UNL     1       0.997   0.561  -7.109  1.00  0.00    -0.271 OA
HETATM   26  C18 UNL     1       3.116   1.600  -6.721  1.00  0.00     0.179 C 
HETATM   27  N3  UNL     1       4.249   1.363  -5.853  1.00  0.00    -0.337 N 
HETATM   28  C21 UNL     1       3.623   1.260  -8.121  1.00  0.00     0.037 C 
HETATM   29  C19 UNL     1       5.502   1.253  -6.577  1.00  0.00     0.127 C 
HETATM   30  C22 UNL     1       4.117   1.068  -4.460  1.00  0.00     0.243 C 
HETATM   31  C20 UNL     1       5.138   1.450  -8.045  1.00  0.00     0.022 C 
HETATM   32  O2  UNL     1       5.076   1.305  -3.676  1.00  0.00    -0.271 OA
ENDBRANCH  20  21
ENDBRANCH  13  20
ENDBRANCH   4  11
BRANCH   9  33
HETATM   33  C25 UNL     1      -2.425  -1.895   4.815  1.00  0.00     0.075 C 
BRANCH  33  34
HETATM   34  C26 UNL     1      -1.734  -0.602   5.307  1.00  0.00     0.181 C 
HETATM   35  N5  UNL     1      -1.223  -0.803   6.671  1.00  0.00    -0.346 N 
HETATM   36  C27 UNL     1      -0.917   0.304   7.530  1.00  0.00     0.241 C 
HETATM   37  H25 UNL     1      -0.924  -1.757   6.978  1.00  0.00     0.163 HD
HETATM   38  C28 UNL     1      -1.288   1.699   7.105  1.00  0.00     0.179 C 
HETATM   39  O4  UNL     1      -0.282   0.111   8.601  1.00  0.00    -0.271 OA
HETATM   40  N6  UNL     1      -2.432   1.667   6.213  1.00  0.00    -0.337 N 
HETATM   41  C31 UNL     1      -1.721   2.602   8.261  1.00  0.00     0.037 C 
HETATM   42  C29 UNL     1      -3.419   2.687   6.520  1.00  0.00     0.127 C 
HETATM   43  C32 UNL     1      -2.654   0.600   5.281  1.00  0.00     0.243 C 
HETATM   44  C30 UNL     1      -2.828   3.481   7.681  1.00  0.00     0.022 C 
HETATM   45  O3  UNL     1      -3.579   0.695   4.430  1.00  0.00    -0.271 OA
ENDBRANCH  33  34
ENDBRANCH   9  33
TORSDOF 5
