MODEL 1
REMARK VINA RESULT:     -11.1      0.000      0.000
REMARK  5 active torsions:
REMARK  status: ('A' for Active; 'I' for Inactive)
REMARK    1  A    between atoms: C4_4  and  N1_7 
REMARK    2  A    between atoms: C8_9  and  C15_16 
REMARK    3  A    between atoms: C15_16  and  C16_17 
REMARK    4  A    between atoms: C24_30  and  C25_31 
REMARK    5  A    between atoms: C25_31  and  C26_32 
ROOT
HETATM    1  C1  UNL     1      13.985   8.915   3.771  1.00  0.00    -0.002 A 
HETATM    2  C2  UNL     1      14.781   7.846   4.088  1.00  0.00     0.045 A 
HETATM    3  C3  UNL     1      15.317   7.014   3.108  1.00  0.00     0.060 A 
HETATM    4  C4  UNL     1      15.035   7.308   1.755  1.00  0.00     0.041 A 
HETATM    5  C5  UNL     1      14.207   8.415   1.436  1.00  0.00     0.031 A 
HETATM    6  C6  UNL     1      13.677   9.233   2.450  1.00  0.00     0.016 A 
HETATM    7  N4  UNL     1      14.930   7.735   5.420  1.00  0.00    -0.365 N 
HETATM    8  C23 UNL     1      14.219   8.749   5.963  1.00  0.00     0.096 A 
HETATM    9  C24 UNL     1      13.610   9.503   4.964  1.00  0.00    -0.028 A 
HETATM   10  H20 UNL     1      15.480   7.011   5.935  1.00  0.00     0.165 HD
ENDROOT
BRANCH   4  11
HETATM   11  N1  UNL     1      15.532   6.459   0.706  1.00  0.00    -0.321 N 
HETATM   12  C7  UNL     1      16.724   6.603   0.080  1.00  0.00     0.105 A 
HETATM   13  C8  UNL     1      16.861   5.654  -0.925  1.00  0.00    -0.027 A 
HETATM   14  C9  UNL     1      15.696   4.911  -0.904  1.00  0.00    -0.001 A 
HETATM   15  C10 UNL     1      14.912   5.418   0.104  1.00  0.00     0.050 A 
HETATM   16  C14 UNL     1      15.280   3.838  -1.695  1.00  0.00     0.014 A 
HETATM   17  C11 UNL     1      13.674   4.844   0.416  1.00  0.00     0.031 A 
HETATM   18  C12 UNL     1      13.233   3.758  -0.361  1.00  0.00     0.002 A 
HETATM   19  C13 UNL     1      14.029   3.263  -1.416  1.00  0.00     0.001 A 
BRANCH  13  20
HETATM   20  C15 UNL     1      18.010   5.540  -1.887  1.00  0.00     0.075 C 
BRANCH  20  21
HETATM   21  C16 UNL     1      17.794   6.411  -3.137  1.00  0.00     0.181 C 
HETATM   22  N2  UNL     1      17.683   5.559  -4.330  1.00  0.00    -0.346 N 
HETATM   23  C17 UNL     1      18.635   5.537  -5.400  1.00  0.00     0.241 C 
HETATM   24  H12 UNL     1      16.878   4.896  -4.386  1.00  0.00     0.163 HD
HETATM   25  O1  UNL     1      18.561   4.637  -6.280  1.00  0.00    -0.271 OA
HETATM   26  C18 UNL     1      19.626   6.653  -5.556  1.00  0.00     0.179 C 
HETATM   27  N3  UNL     1      19.898   7.289  -4.285  1.00  0.00    -0.337 N 
HETATM   28  C21 UNL     1      20.994   6.201  -6.062  1.00  0.00     0.037 C 
HETATM   29  C19 UNL     1      21.303   7.601  -4.098  1.00  0.00     0.127 C 
HETATM   30  C22 UNL     1      18.920   7.410  -3.248  1.00  0.00     0.243 C 
HETATM   31  C20 UNL     1      21.993   7.131  -5.375  1.00  0.00     0.022 C 
HETATM   32  O2  UNL     1      19.036   8.319  -2.381  1.00  0.00    -0.271 OA
ENDBRANCH  20  21
ENDBRANCH  13  20
ENDBRANCH   4  11
BRANCH   9  33
HETATM   33  C25 UNL     1      12.711  10.693   5.158  1.00  0.00     0.075 C 
BRANCH  33  34
HETATM   34  C26 UNL     1      11.352  10.307   5.787  1.00  0.00     0.181 C 
HETATM   35  N5  UNL     1      10.502   9.666   4.773  1.00  0.00    -0.346 N 
HETATM   36  C27 UNL     1       9.079   9.580   4.929  1.00  0.00     0.241 C 
HETATM   37  H25 UNL     1      10.942   9.120   3.997  1.00  0.00     0.163 HD
HETATM   38  C28 UNL     1       8.411  10.312   6.062  1.00  0.00     0.179 C 
HETATM   39  O4  UNL     1       8.406   8.841   4.162  1.00  0.00    -0.271 OA
HETATM   40  N6  UNL     1       9.192  11.474   6.442  1.00  0.00    -0.337 N 
HETATM   41  C31 UNL     1       7.031  10.869   5.707  1.00  0.00     0.037 C 
HETATM   42  C29 UNL     1       8.378  12.657   6.662  1.00  0.00     0.127 C 
HETATM   43  C32 UNL     1      10.624  11.494   6.383  1.00  0.00     0.243 C 
HETATM   44  C30 UNL     1       6.938  12.197   6.458  1.00  0.00     0.022 C 
HETATM   45  O3  UNL     1      11.257  12.472   6.863  1.00  0.00    -0.271 OA
ENDBRANCH  33  34
ENDBRANCH   9  33
TORSDOF 5
ENDMDL
MODEL 2
REMARK VINA RESULT:     -11.1      2.967      6.157
REMARK  5 active torsions:
REMARK  status: ('A' for Active; 'I' for Inactive)
REMARK    1  A    between atoms: C4_4  and  N1_7 
REMARK    2  A    between atoms: C8_9  and  C15_16 
REMARK    3  A    between atoms: C15_16  and  C16_17 
REMARK    4  A    between atoms: C24_30  and  C25_31 
REMARK    5  A    between atoms: C25_31  and  C26_32 
ROOT
HETATM    1  C1  UNL     1      15.767   5.649  -0.435  1.00  0.00    -0.002 A 
HETATM    2  C2  UNL     1      15.376   5.293  -1.699  1.00  0.00     0.045 A 
HETATM    3  C3  UNL     1      16.127   5.633  -2.822  1.00  0.00     0.060 A 
HETATM    4  C4  UNL     1      17.330   6.349  -2.629  1.00  0.00     0.041 A 
HETATM    5  C5  UNL     1      17.725   6.717  -1.317  1.00  0.00     0.031 A 
HETATM    6  C6  UNL     1      16.942   6.361  -0.204  1.00  0.00     0.016 A 
HETATM    7  N4  UNL     1      14.213   4.621  -1.672  1.00  0.00    -0.365 N 
HETATM    8  C23 UNL     1      13.854   4.545  -0.371  1.00  0.00     0.096 A 
HETATM    9  C24 UNL     1      14.797   5.181   0.430  1.00  0.00    -0.028 A 
HETATM   10  H20 UNL     1      13.687   4.237  -2.489  1.00  0.00     0.165 HD
ENDROOT
BRANCH   4  11
HETATM   11  N1  UNL     1      18.123   6.759  -3.757  1.00  0.00    -0.321 N 
HETATM   12  C7  UNL     1      19.219   6.112  -4.221  1.00  0.00     0.105 A 
HETATM   13  C8  UNL     1      19.782   6.810  -5.281  1.00  0.00    -0.027 A 
HETATM   14  C9  UNL     1      18.990   7.930  -5.458  1.00  0.00    -0.001 A 
HETATM   15  C10 UNL     1      17.985   7.866  -4.524  1.00  0.00     0.050 A 
HETATM   16  C14 UNL     1      19.087   8.986  -6.366  1.00  0.00     0.014 A 
HETATM   17  C11 UNL     1      16.979   8.838  -4.474  1.00  0.00     0.031 A 
HETATM   18  C12 UNL     1      17.050   9.909  -5.382  1.00  0.00     0.002 A 
HETATM   19  C13 UNL     1      18.103   9.987  -6.318  1.00  0.00     0.001 A 
BRANCH  13  20
HETATM   20  C15 UNL     1      21.046   6.452  -6.008  1.00  0.00     0.075 C 
BRANCH  20  21
HETATM   21  C16 UNL     1      22.297   6.895  -5.229  1.00  0.00     0.181 C 
HETATM   22  N2  UNL     1      22.108   6.646  -3.792  1.00  0.00    -0.346 N 
HETATM   23  C17 UNL     1      22.015   7.672  -2.798  1.00  0.00     0.241 C 
HETATM   24  H12 UNL     1      21.995   5.656  -3.476  1.00  0.00     0.163 HD
HETATM   25  O1  UNL     1      21.657   7.374  -1.627  1.00  0.00    -0.271 OA
HETATM   26  C18 UNL     1      22.474   9.067  -3.104  1.00  0.00     0.179 C 
HETATM   27  N3  UNL     1      22.385   9.345  -4.522  1.00  0.00    -0.337 N 
HETATM   28  C21 UNL     1      21.632  10.156  -2.443  1.00  0.00     0.037 C 
HETATM   29  C19 UNL     1      21.879  10.676  -4.806  1.00  0.00     0.127 C 
HETATM   30  C22 UNL     1      22.580   8.347  -5.527  1.00  0.00     0.243 C 
HETATM   31  C20 UNL     1      21.633  11.313  -3.442  1.00  0.00     0.022 C 
HETATM   32  O2  UNL     1      22.930   8.689  -6.689  1.00  0.00    -0.271 OA
ENDBRANCH  20  21
ENDBRANCH  13  20
ENDBRANCH   4  11
BRANCH   9  33
HETATM   33  C25 UNL     1      14.745   5.342   1.925  1.00  0.00     0.075 C 
BRANCH  33  34
HETATM   34  C26 UNL     1      15.035   6.795   2.371  1.00  0.00     0.181 C 
HETATM   35  N5  UNL     1      15.577   6.794   3.737  1.00  0.00    -0.346 N 
HETATM   36  C27 UNL     1      15.549   7.969   4.558  1.00  0.00     0.241 C 
HETATM   37  H25 UNL     1      16.136   5.976   4.074  1.00  0.00     0.163 HD
HETATM   38  C28 UNL     1      14.795   9.185   4.090  1.00  0.00     0.179 C 
HETATM   39  O4  UNL     1      16.209   8.002   5.631  1.00  0.00    -0.271 OA
HETATM   40  N6  UNL     1      13.712   8.797   3.206  1.00  0.00    -0.337 N 
HETATM   41  C31 UNL     1      14.117   9.963   5.218  1.00  0.00     0.037 C 
HETATM   42  C29 UNL     1      12.473   9.500   3.485  1.00  0.00     0.127 C 
HETATM   43  C32 UNL     1      13.809   7.681   2.311  1.00  0.00     0.243 C 
HETATM   44  C30 UNL     1      12.807  10.468   4.616  1.00  0.00     0.022 C 
HETATM   45  O3  UNL     1      12.899   7.479   1.462  1.00  0.00    -0.271 OA
ENDBRANCH  33  34
ENDBRANCH   9  33
TORSDOF 5
ENDMDL
MODEL 3
REMARK VINA RESULT:     -10.9      2.007      2.802
REMARK  5 active torsions:
REMARK  status: ('A' for Active; 'I' for Inactive)
REMARK    1  A    between atoms: C4_4  and  N1_7 
REMARK    2  A    between atoms: C8_9  and  C15_16 
REMARK    3  A    between atoms: C15_16  and  C16_17 
REMARK    4  A    between atoms: C24_30  and  C25_31 
REMARK    5  A    between atoms: C25_31  and  C26_32 
ROOT
HETATM    1  C1  UNL     1      14.232   8.857   3.668  1.00  0.00    -0.002 A 
HETATM    2  C2  UNL     1      14.975   7.746   3.971  1.00  0.00     0.045 A 
HETATM    3  C3  UNL     1      15.448   6.888   2.980  1.00  0.00     0.060 A 
HETATM    4  C4  UNL     1      15.158   7.199   1.633  1.00  0.00     0.041 A 
HETATM    5  C5  UNL     1      14.385   8.349   1.329  1.00  0.00     0.031 A 
HETATM    6  C6  UNL     1      13.918   9.194   2.353  1.00  0.00     0.016 A 
HETATM    7  N4  UNL     1      15.142   7.626   5.299  1.00  0.00    -0.365 N 
HETATM    8  C23 UNL     1      14.497   8.676   5.855  1.00  0.00     0.096 A 
HETATM    9  C24 UNL     1      13.912   9.463   4.868  1.00  0.00    -0.028 A 
HETATM   10  H20 UNL     1      15.661   6.873   5.804  1.00  0.00     0.165 HD
ENDROOT
BRANCH   4  11
HETATM   11  N1  UNL     1      15.588   6.325   0.574  1.00  0.00    -0.321 N 
HETATM   12  C7  UNL     1      16.761   6.426  -0.095  1.00  0.00     0.105 A 
HETATM   13  C8  UNL     1      16.832   5.465  -1.096  1.00  0.00    -0.027 A 
HETATM   14  C9  UNL     1      15.645   4.760  -1.026  1.00  0.00    -0.001 A 
HETATM   15  C10 UNL     1      14.915   5.300   0.005  1.00  0.00     0.050 A 
HETATM   16  C14 UNL     1      15.167   3.695  -1.791  1.00  0.00     0.014 A 
HETATM   17  C11 UNL     1      13.671   4.769   0.367  1.00  0.00     0.031 A 
HETATM   18  C12 UNL     1      13.169   3.691  -0.383  1.00  0.00     0.002 A 
HETATM   19  C13 UNL     1      13.909   3.162  -1.461  1.00  0.00     0.001 A 
BRANCH  13  20
HETATM   20  C15 UNL     1      17.940   5.307  -2.097  1.00  0.00     0.075 C 
BRANCH  20  21
HETATM   21  C16 UNL     1      17.772   6.265  -3.289  1.00  0.00     0.181 C 
HETATM   22  N2  UNL     1      17.720   5.502  -4.545  1.00  0.00    -0.346 N 
HETATM   23  C17 UNL     1      18.717   5.562  -5.571  1.00  0.00     0.241 C 
HETATM   24  H12 UNL     1      16.923   4.840  -4.684  1.00  0.00     0.163 HD
HETATM   25  O1  UNL     1      18.688   4.728  -6.516  1.00  0.00    -0.271 OA
HETATM   26  C18 UNL     1      19.705   6.691  -5.602  1.00  0.00     0.179 C 
HETATM   27  N3  UNL     1      19.916   7.235  -4.278  1.00  0.00    -0.337 N 
HETATM   28  C21 UNL     1      21.097   6.284  -6.080  1.00  0.00     0.037 C 
HETATM   29  C19 UNL     1      21.309   7.539  -4.008  1.00  0.00     0.127 C 
HETATM   30  C22 UNL     1      18.894   7.275  -3.278  1.00  0.00     0.243 C 
HETATM   31  C20 UNL     1      22.058   7.166  -5.283  1.00  0.00     0.022 C 
HETATM   32  O2  UNL     1      18.965   8.119  -2.344  1.00  0.00    -0.271 OA
ENDBRANCH  20  21
ENDBRANCH  13  20
ENDBRANCH   4  11
BRANCH   9  33
HETATM   33  C25 UNL     1      13.081  10.699   5.079  1.00  0.00     0.075 C 
BRANCH  33  34
HETATM   34  C26 UNL     1      13.110  11.184   6.547  1.00  0.00     0.181 C 
HETATM   35  N5  UNL     1      11.765  11.621   6.950  1.00  0.00    -0.346 N 
HETATM   36  C27 UNL     1      11.561  12.487   8.074  1.00  0.00     0.241 C 
HETATM   37  H25 UNL     1      10.924  11.175   6.517  1.00  0.00     0.163 HD
HETATM   38  C28 UNL     1      12.748  13.112   8.756  1.00  0.00     0.179 C 
HETATM   39  O4  UNL     1      10.399  12.667   8.525  1.00  0.00    -0.271 OA
HETATM   40  N6  UNL     1      13.849  13.255   7.821  1.00  0.00    -0.337 N 
HETATM   41  C31 UNL     1      12.489  14.528   9.272  1.00  0.00     0.037 C 
HETATM   42  C29 UNL     1      14.512  14.543   7.919  1.00  0.00     0.127 C 
HETATM   43  C32 UNL     1      14.098  12.309   6.772  1.00  0.00     0.243 C 
HETATM   44  C30 UNL     1      13.807  15.272   9.059  1.00  0.00     0.022 C 
HETATM   45  O3  UNL     1      15.150  12.401   6.084  1.00  0.00    -0.271 OA
ENDBRANCH  33  34
ENDBRANCH   9  33
TORSDOF 5
ENDMDL
MODEL 4
REMARK VINA RESULT:     -10.9      2.696     11.751
REMARK  5 active torsions:
REMARK  status: ('A' for Active; 'I' for Inactive)
REMARK    1  A    between atoms: C4_4  and  N1_7 
REMARK    2  A    between atoms: C8_9  and  C15_16 
REMARK    3  A    between atoms: C15_16  and  C16_17 
REMARK    4  A    between atoms: C24_30  and  C25_31 
REMARK    5  A    between atoms: C25_31  and  C26_32 
ROOT
HETATM    1  C1  UNL     1      19.396   6.271  -3.307  1.00  0.00    -0.002 A 
HETATM    2  C2  UNL     1      19.668   6.086  -1.977  1.00  0.00     0.045 A 
HETATM    3  C3  UNL     1      18.653   5.929  -1.036  1.00  0.00     0.060 A 
HETATM    4  C4  UNL     1      17.314   5.946  -1.488  1.00  0.00     0.041 A 
HETATM    5  C5  UNL     1      17.042   6.142  -2.866  1.00  0.00     0.031 A 
HETATM    6  C6  UNL     1      18.090   6.301  -3.791  1.00  0.00     0.016 A 
HETATM    7  N4  UNL     1      20.993   6.100  -1.750  1.00  0.00    -0.365 N 
HETATM    8  C23 UNL     1      21.578   6.295  -2.953  1.00  0.00     0.096 A 
HETATM    9  C24 UNL     1      20.612   6.413  -3.948  1.00  0.00    -0.028 A 
HETATM   10  H20 UNL     1      21.477   5.986  -0.831  1.00  0.00     0.165 HD
ENDROOT
BRANCH   4  11
HETATM   11  N1  UNL     1      16.228   5.828  -0.553  1.00  0.00    -0.321 N 
HETATM   12  C7  UNL     1      16.133   6.490   0.625  1.00  0.00     0.105 A 
HETATM   13  C8  UNL     1      14.991   6.097   1.311  1.00  0.00    -0.027 A 
HETATM   14  C9  UNL     1      14.376   5.153   0.510  1.00  0.00    -0.001 A 
HETATM   15  C10 UNL     1      15.146   5.019  -0.620  1.00  0.00     0.050 A 
HETATM   16  C14 UNL     1      13.207   4.414   0.699  1.00  0.00     0.014 A 
HETATM   17  C11 UNL     1      14.762   4.165  -1.660  1.00  0.00     0.031 A 
HETATM   18  C12 UNL     1      13.585   3.413  -1.499  1.00  0.00     0.002 A 
HETATM   19  C13 UNL     1      12.816   3.531  -0.322  1.00  0.00     0.001 A 
BRANCH  13  20
HETATM   20  C15 UNL     1      14.581   6.549   2.684  1.00  0.00     0.075 C 
BRANCH  20  21
HETATM   21  C16 UNL     1      15.245   7.883   3.066  1.00  0.00     0.181 C 
HETATM   22  N2  UNL     1      15.779   7.805   4.434  1.00  0.00    -0.346 N 
HETATM   23  C17 UNL     1      15.285   8.568   5.541  1.00  0.00     0.241 C 
HETATM   24  H12 UNL     1      16.545   7.120   4.623  1.00  0.00     0.163 HD
HETATM   25  O1  UNL     1      15.671   8.291   6.708  1.00  0.00    -0.271 OA
HETATM   26  C18 UNL     1      14.428   9.776   5.305  1.00  0.00     0.179 C 
HETATM   27  N3  UNL     1      13.714   9.672   4.051  1.00  0.00    -0.337 N 
HETATM   28  C21 UNL     1      13.337   9.976   6.356  1.00  0.00     0.037 C 
HETATM   29  C19 UNL     1      12.340  10.130   4.143  1.00  0.00     0.127 C 
HETATM   30  C22 UNL     1      14.244   9.002   2.905  1.00  0.00     0.243 C 
HETATM   31  C20 UNL     1      12.162  10.582   5.589  1.00  0.00     0.022 C 
HETATM   32  O2  UNL     1      13.825   9.302   1.754  1.00  0.00    -0.271 OA
ENDBRANCH  20  21
ENDBRANCH  13  20
ENDBRANCH   4  11
BRANCH   9  33
HETATM   33  C25 UNL     1      20.854   6.669  -5.410  1.00  0.00     0.075 C 
BRANCH  33  34
HETATM   34  C26 UNL     1      21.586   8.007  -5.660  1.00  0.00     0.181 C 
HETATM   35  N5  UNL     1      21.098   9.022  -4.715  1.00  0.00    -0.346 N 
HETATM   36  C27 UNL     1      21.270  10.424  -4.961  1.00  0.00     0.241 C 
HETATM   37  H25 UNL     1      20.758   8.730  -3.770  1.00  0.00     0.163 HD
HETATM   38  C28 UNL     1      21.802  10.885  -6.292  1.00  0.00     0.179 C 
HETATM   39  O4  UNL     1      21.041  11.256  -4.043  1.00  0.00    -0.271 OA
HETATM   40  N6  UNL     1      21.474   9.922  -7.326  1.00  0.00    -0.337 N 
HETATM   41  C31 UNL     1      21.192  12.201  -6.777  1.00  0.00     0.037 C 
HETATM   42  C29 UNL     1      20.996  10.544  -8.549  1.00  0.00     0.127 C 
HETATM   43  C32 UNL     1      21.419   8.511  -7.078  1.00  0.00     0.243 C 
HETATM   44  C30 UNL     1      21.077  12.046  -8.293  1.00  0.00     0.022 C 
HETATM   45  O3  UNL     1      21.276   7.711  -8.042  1.00  0.00    -0.271 OA
ENDBRANCH  33  34
ENDBRANCH   9  33
TORSDOF 5
ENDMDL
MODEL 5
REMARK VINA RESULT:     -10.8      2.622      3.807
REMARK  5 active torsions:
REMARK  status: ('A' for Active; 'I' for Inactive)
REMARK    1  A    between atoms: C4_4  and  N1_7 
REMARK    2  A    between atoms: C8_9  and  C15_16 
REMARK    3  A    between atoms: C15_16  and  C16_17 
REMARK    4  A    between atoms: C24_30  and  C25_31 
REMARK    5  A    between atoms: C25_31  and  C26_32 
ROOT
HETATM    1  C1  UNL     1      14.283   8.842   4.244  1.00  0.00    -0.002 A 
HETATM    2  C2  UNL     1      15.108   7.749   4.280  1.00  0.00     0.045 A 
HETATM    3  C3  UNL     1      15.452   7.052   3.124  1.00  0.00     0.060 A 
HETATM    4  C4  UNL     1      14.940   7.511   1.889  1.00  0.00     0.041 A 
HETATM    5  C5  UNL     1      14.083   8.641   1.862  1.00  0.00     0.031 A 
HETATM    6  C6  UNL     1      13.751   9.321   3.049  1.00  0.00     0.016 A 
HETATM    7  N4  UNL     1      15.488   7.473   5.539  1.00  0.00    -0.365 N 
HETATM    8  C23 UNL     1      14.897   8.405   6.322  1.00  0.00     0.096 A 
HETATM    9  C24 UNL     1      14.132   9.273   5.548  1.00  0.00    -0.028 A 
HETATM   10  H20 UNL     1      16.110   6.696   5.855  1.00  0.00     0.165 HD
ENDROOT
BRANCH   4  11
HETATM   11  N1  UNL     1      15.232   6.804   0.671  1.00  0.00    -0.321 N 
HETATM   12  C7  UNL     1      16.180   7.156  -0.230  1.00  0.00     0.105 A 
HETATM   13  C8  UNL     1      16.154   6.297  -1.321  1.00  0.00    -0.027 A 
HETATM   14  C9  UNL     1      15.141   5.392  -1.064  1.00  0.00    -0.001 A 
HETATM   15  C10 UNL     1      14.606   5.720   0.158  1.00  0.00     0.050 A 
HETATM   16  C14 UNL     1      14.662   4.317  -1.816  1.00  0.00     0.014 A 
HETATM   17  C11 UNL     1      13.583   4.955   0.729  1.00  0.00     0.031 A 
HETATM   18  C12 UNL     1      13.086   3.863  -0.003  1.00  0.00     0.002 A 
HETATM   19  C13 UNL     1      13.617   3.551  -1.273  1.00  0.00     0.001 A 
BRANCH  13  20
HETATM   20  C15 UNL     1      17.000   6.407  -2.557  1.00  0.00     0.075 C 
BRANCH  20  21
HETATM   21  C16 UNL     1      18.198   5.442  -2.516  1.00  0.00     0.181 C 
HETATM   22  N2  UNL     1      19.244   5.977  -1.631  1.00  0.00    -0.346 N 
HETATM   23  C17 UNL     1      20.536   6.408  -2.074  1.00  0.00     0.241 C 
HETATM   24  H12 UNL     1      19.019   6.088  -0.617  1.00  0.00     0.163 HD
HETATM   25  O1  UNL     1      21.289   7.033  -1.279  1.00  0.00    -0.271 OA
HETATM   26  C18 UNL     1      21.050   6.001  -3.423  1.00  0.00     0.179 C 
HETATM   27  N3  UNL     1      19.960   5.741  -4.338  1.00  0.00    -0.337 N 
HETATM   28  C21 UNL     1      21.890   7.071  -4.115  1.00  0.00     0.037 C 
HETATM   29  C19 UNL     1      20.204   6.262  -5.670  1.00  0.00     0.127 C 
HETATM   30  C22 UNL     1      18.699   5.210  -3.921  1.00  0.00     0.243 C 
HETATM   31  C20 UNL     1      21.586   6.905  -5.604  1.00  0.00     0.022 C 
HETATM   32  O2  UNL     1      17.971   4.600  -4.750  1.00  0.00    -0.271 OA
ENDBRANCH  20  21
ENDBRANCH  13  20
ENDBRANCH   4  11
BRANCH   9  33
HETATM   33  C25 UNL     1      13.297  10.420   6.045  1.00  0.00     0.075 C 
BRANCH  33  34
HETATM   34  C26 UNL     1      14.096  11.742   6.118  1.00  0.00     0.181 C 
HETATM   35  N5  UNL     1      15.017  11.701   7.263  1.00  0.00    -0.346 N 
HETATM   36  C27 UNL     1      15.570  12.898   7.827  1.00  0.00     0.241 C 
HETATM   37  H25 UNL     1      15.407  10.785   7.583  1.00  0.00     0.163 HD
HETATM   38  C28 UNL     1      15.070  14.239   7.361  1.00  0.00     0.179 C 
HETATM   39  O4  UNL     1      16.515  12.823   8.657  1.00  0.00    -0.271 OA
HETATM   40  N6  UNL     1      13.702  14.131   6.890  1.00  0.00    -0.337 N 
HETATM   41  C31 UNL     1      15.019  15.296   8.464  1.00  0.00     0.037 C 
HETATM   42  C29 UNL     1      12.854  15.214   7.356  1.00  0.00     0.127 C 
HETATM   43  C32 UNL     1      13.205  12.961   6.226  1.00  0.00     0.243 C 
HETATM   44  C30 UNL     1      13.777  16.130   8.154  1.00  0.00     0.022 C 
HETATM   45  O3  UNL     1      12.056  12.977   5.707  1.00  0.00    -0.271 OA
ENDBRANCH  33  34
ENDBRANCH   9  33
TORSDOF 5
ENDMDL
MODEL 6
REMARK VINA RESULT:     -10.7      3.347      6.921
REMARK  5 active torsions:
REMARK  status: ('A' for Active; 'I' for Inactive)
REMARK    1  A    between atoms: C4_4  and  N1_7 
REMARK    2  A    between atoms: C8_9  and  C15_16 
REMARK    3  A    between atoms: C15_16  and  C16_17 
REMARK    4  A    between atoms: C24_30  and  C25_31 
REMARK    5  A    between atoms: C25_31  and  C26_32 
ROOT
HETATM    1  C1  UNL     1      17.322   5.444  -1.002  1.00  0.00    -0.002 A 
HETATM    2  C2  UNL     1      18.337   4.541  -1.180  1.00  0.00     0.045 A 
HETATM    3  C3  UNL     1      19.344   4.745  -2.121  1.00  0.00     0.060 A 
HETATM    4  C4  UNL     1      19.309   5.929  -2.890  1.00  0.00     0.041 A 
HETATM    5  C5  UNL     1      18.252   6.857  -2.703  1.00  0.00     0.031 A 
HETATM    6  C6  UNL     1      17.247   6.619  -1.746  1.00  0.00     0.016 A 
HETATM    7  N4  UNL     1      18.193   3.487  -0.358  1.00  0.00    -0.365 N 
HETATM    8  C23 UNL     1      17.069   3.719   0.357  1.00  0.00     0.096 A 
HETATM    9  C24 UNL     1      16.495   4.929  -0.023  1.00  0.00    -0.028 A 
HETATM   10  H20 UNL     1      18.819   2.653  -0.285  1.00  0.00     0.165 HD
ENDROOT
BRANCH   4  11
HETATM   11  N1  UNL     1      20.302   6.171  -3.902  1.00  0.00    -0.321 N 
HETATM   12  C7  UNL     1      21.468   6.834  -3.713  1.00  0.00     0.105 A 
HETATM   13  C8  UNL     1      22.162   6.944  -4.911  1.00  0.00    -0.027 A 
HETATM   14  C9  UNL     1      21.375   6.322  -5.862  1.00  0.00    -0.001 A 
HETATM   15  C10 UNL     1      20.256   5.854  -5.217  1.00  0.00     0.050 A 
HETATM   16  C14 UNL     1      21.567   6.141  -7.233  1.00  0.00     0.014 A 
HETATM   17  C11 UNL     1      19.276   5.127  -5.902  1.00  0.00     0.031 A 
HETATM   18  C12 UNL     1      19.448   4.924  -7.283  1.00  0.00     0.002 A 
HETATM   19  C13 UNL     1      20.583   5.435  -7.946  1.00  0.00     0.001 A 
BRANCH  13  20
HETATM   20  C15 UNL     1      23.457   7.676  -5.122  1.00  0.00     0.075 C 
BRANCH  20  21
HETATM   21  C16 UNL     1      23.329   9.170  -4.779  1.00  0.00     0.181 C 
HETATM   22  N2  UNL     1      23.299   9.351  -3.320  1.00  0.00    -0.346 N 
HETATM   23  C17 UNL     1      22.166   9.831  -2.587  1.00  0.00     0.241 C 
HETATM   24  H12 UNL     1      24.146   9.075  -2.775  1.00  0.00     0.163 HD
HETATM   25  O1  UNL     1      22.167   9.765  -1.328  1.00  0.00    -0.271 OA
HETATM   26  C18 UNL     1      21.047  10.535  -3.296  1.00  0.00     0.179 C 
HETATM   27  N3  UNL     1      20.959  10.112  -4.677  1.00  0.00    -0.337 N 
HETATM   28  C21 UNL     1      19.665  10.246  -2.714  1.00  0.00     0.037 C 
HETATM   29  C19 UNL     1      19.591   9.920  -5.123  1.00  0.00     0.127 C 
HETATM   30  C22 UNL     1      22.099   9.731  -5.452  1.00  0.00     0.243 C 
HETATM   31  C20 UNL     1      18.722  10.263  -3.917  1.00  0.00     0.022 C 
HETATM   32  O2  UNL     1      22.054   9.803  -6.710  1.00  0.00    -0.271 OA
ENDBRANCH  20  21
ENDBRANCH  13  20
ENDBRANCH   4  11
BRANCH   9  33
HETATM   33  C25 UNL     1      15.222   5.526   0.512  1.00  0.00     0.075 C 
BRANCH  33  34
HETATM   34  C26 UNL     1      15.482   6.760   1.407  1.00  0.00     0.181 C 
HETATM   35  N5  UNL     1      15.648   6.332   2.804  1.00  0.00    -0.346 N 
HETATM   36  C27 UNL     1      15.486   7.247   3.896  1.00  0.00     0.241 C 
HETATM   37  H25 UNL     1      16.044   5.387   3.013  1.00  0.00     0.163 HD
HETATM   38  C28 UNL     1      14.963   8.633   3.632  1.00  0.00     0.179 C 
HETATM   39  O4  UNL     1      15.844   6.911   5.056  1.00  0.00    -0.271 OA
HETATM   40  N6  UNL     1      14.124   8.639   2.448  1.00  0.00    -0.337 N 
HETATM   41  C31 UNL     1      14.068   9.178   4.746  1.00  0.00     0.037 C 
HETATM   42  C29 UNL     1      12.905   9.408   2.621  1.00  0.00     0.127 C 
HETATM   43  C32 UNL     1      14.376   7.790   1.320  1.00  0.00     0.243 C 
HETATM   44  C30 UNL     1      12.997   9.996   4.026  1.00  0.00     0.022 C 
HETATM   45  O3  UNL     1      13.707   7.940   0.262  1.00  0.00    -0.271 OA
ENDBRANCH  33  34
ENDBRANCH   9  33
TORSDOF 5
ENDMDL
MODEL 7
REMARK VINA RESULT:     -10.6      2.799      4.785
REMARK  5 active torsions:
REMARK  status: ('A' for Active; 'I' for Inactive)
REMARK    1  A    between atoms: C4_4  and  N1_7 
REMARK    2  A    between atoms: C8_9  and  C15_16 
REMARK    3  A    between atoms: C15_16  and  C16_17 
REMARK    4  A    between atoms: C24_30  and  C25_31 
REMARK    5  A    between atoms: C25_31  and  C26_32 
ROOT
HETATM    1  C1  UNL     1      14.344   9.189   3.931  1.00  0.00    -0.002 A 
HETATM    2  C2  UNL     1      13.405   9.105   2.937  1.00  0.00     0.045 A 
HETATM    3  C3  UNL     1      13.619   8.348   1.787  1.00  0.00     0.060 A 
HETATM    4  C4  UNL     1      14.838   7.642   1.670  1.00  0.00     0.041 A 
HETATM    5  C5  UNL     1      15.806   7.738   2.702  1.00  0.00     0.031 A 
HETATM    6  C6  UNL     1      15.560   8.514   3.850  1.00  0.00     0.016 A 
HETATM    7  N4  UNL     1      12.321   9.843   3.234  1.00  0.00    -0.365 N 
HETATM    8  C23 UNL     1      12.571  10.408   4.437  1.00  0.00     0.096 A 
HETATM    9  C24 UNL     1      13.827  10.027   4.900  1.00  0.00    -0.028 A 
HETATM   10  H20 UNL     1      11.460   9.962   2.655  1.00  0.00     0.165 HD
ENDROOT
BRANCH   4  11
HETATM   11  N1  UNL     1      15.126   6.878   0.486  1.00  0.00    -0.321 N 
HETATM   12  C7  UNL     1      16.048   7.204  -0.451  1.00  0.00     0.105 A 
HETATM   13  C8  UNL     1      16.025   6.286  -1.493  1.00  0.00    -0.027 A 
HETATM   14  C9  UNL     1      15.042   5.370  -1.167  1.00  0.00    -0.001 A 
HETATM   15  C10 UNL     1      14.520   5.751   0.045  1.00  0.00     0.050 A 
HETATM   16  C14 UNL     1      14.577   4.244  -1.850  1.00  0.00     0.014 A 
HETATM   17  C11 UNL     1      13.529   4.993   0.677  1.00  0.00     0.031 A 
HETATM   18  C12 UNL     1      13.048   3.849   0.015  1.00  0.00     0.002 A 
HETATM   19  C13 UNL     1      13.564   3.482  -1.245  1.00  0.00     0.001 A 
BRANCH  13  20
HETATM   20  C15 UNL     1      16.845   6.350  -2.750  1.00  0.00     0.075 C 
BRANCH  20  21
HETATM   21  C16 UNL     1      18.009   5.344  -2.723  1.00  0.00     0.181 C 
HETATM   22  N2  UNL     1      18.981   5.727  -1.688  1.00  0.00    -0.346 N 
HETATM   23  C17 UNL     1      20.319   6.162  -1.955  1.00  0.00     0.241 C 
HETATM   24  H12 UNL     1      18.664   5.721  -0.692  1.00  0.00     0.163 HD
HETATM   25  O1  UNL     1      21.010   6.657  -1.024  1.00  0.00    -0.271 OA
HETATM   26  C18 UNL     1      20.946   5.905  -3.293  1.00  0.00     0.179 C 
HETATM   27  N3  UNL     1      19.940   5.800  -4.328  1.00  0.00    -0.337 N 
HETATM   28  C21 UNL     1      21.874   7.021  -3.768  1.00  0.00     0.037 C 
HETATM   29  C19 UNL     1      20.321   6.471  -5.557  1.00  0.00     0.127 C 
HETATM   30  C22 UNL     1      18.633   5.268  -4.095  1.00  0.00     0.243 C 
HETATM   31  C20 UNL     1      21.706   7.050  -5.287  1.00  0.00     0.022 C 
HETATM   32  O2  UNL     1      17.971   4.791  -5.056  1.00  0.00    -0.271 OA
ENDBRANCH  20  21
ENDBRANCH  13  20
ENDBRANCH   4  11
BRANCH   9  33
HETATM   33  C25 UNL     1      14.484  10.466   6.180  1.00  0.00     0.075 C 
BRANCH  33  34
HETATM   34  C26 UNL     1      14.959   9.270   7.038  1.00  0.00     0.181 C 
HETATM   35  N5  UNL     1      14.169   9.205   8.276  1.00  0.00    -0.346 N 
HETATM   36  C27 UNL     1      14.634   8.490   9.429  1.00  0.00     0.241 C 
HETATM   37  H25 UNL     1      13.180   9.548   8.279  1.00  0.00     0.163 HD
HETATM   38  C28 UNL     1      16.034   7.940   9.446  1.00  0.00     0.179 C 
HETATM   39  O4  UNL     1      13.849   8.269  10.389  1.00  0.00    -0.271 OA
HETATM   40  N6  UNL     1      16.898   8.731   8.590  1.00  0.00    -0.337 N 
HETATM   41  C31 UNL     1      16.700   7.990  10.823  1.00  0.00     0.037 C 
HETATM   42  C29 UNL     1      18.187   9.018   9.193  1.00  0.00     0.127 C 
HETATM   43  C32 UNL     1      16.432   9.343   7.379  1.00  0.00     0.243 C 
HETATM   44  C30 UNL     1      18.169   8.298  10.539  1.00  0.00     0.022 C 
HETATM   45  O3  UNL     1      17.256   9.893   6.599  1.00  0.00    -0.271 OA
ENDBRANCH  33  34
ENDBRANCH   9  33
TORSDOF 5
ENDMDL
MODEL 8
REMARK VINA RESULT:     -10.6      3.155     12.446
REMARK  5 active torsions:
REMARK  status: ('A' for Active; 'I' for Inactive)
REMARK    1  A    between atoms: C4_4  and  N1_7 
REMARK    2  A    between atoms: C8_9  and  C15_16 
REMARK    3  A    between atoms: C15_16  and  C16_17 
REMARK    4  A    between atoms: C24_30  and  C25_31 
REMARK    5  A    between atoms: C25_31  and  C26_32 
ROOT
HETATM    1  C1  UNL     1      20.440   7.810  -3.349  1.00  0.00    -0.002 A 
HETATM    2  C2  UNL     1      20.554   6.715  -2.533  1.00  0.00     0.045 A 
HETATM    3  C3  UNL     1      19.467   6.213  -1.822  1.00  0.00     0.060 A 
HETATM    4  C4  UNL     1      18.216   6.853  -1.975  1.00  0.00     0.041 A 
HETATM    5  C5  UNL     1      18.107   7.988  -2.819  1.00  0.00     0.031 A 
HETATM    6  C6  UNL     1      19.227   8.473  -3.521  1.00  0.00     0.016 A 
HETATM    7  N4  UNL     1      21.817   6.253  -2.522  1.00  0.00    -0.365 N 
HETATM    8  C23 UNL     1      22.520   7.062  -3.345  1.00  0.00     0.096 A 
HETATM    9  C24 UNL     1      21.695   8.050  -3.875  1.00  0.00    -0.028 A 
HETATM   10  H20 UNL     1      22.184   5.435  -1.986  1.00  0.00     0.165 HD
ENDROOT
BRANCH   4  11
HETATM   11  N1  UNL     1      17.070   6.399  -1.234  1.00  0.00    -0.321 N 
HETATM   12  C7  UNL     1      16.608   6.955  -0.089  1.00  0.00     0.105 A 
HETATM   13  C8  UNL     1      15.525   6.233   0.398  1.00  0.00    -0.027 A 
HETATM   14  C9  UNL     1      15.333   5.195  -0.495  1.00  0.00    -0.001 A 
HETATM   15  C10 UNL     1      16.281   5.328  -1.480  1.00  0.00     0.050 A 
HETATM   16  C14 UNL     1      14.400   4.156  -0.503  1.00  0.00     0.014 A 
HETATM   17  C11 UNL     1      16.321   4.451  -2.570  1.00  0.00     0.031 A 
HETATM   18  C12 UNL     1      15.388   3.399  -2.606  1.00  0.00     0.002 A 
HETATM   19  C13 UNL     1      14.438   3.248  -1.574  1.00  0.00     0.001 A 
BRANCH  13  20
HETATM   20  C15 UNL     1      14.791   6.492   1.682  1.00  0.00     0.075 C 
BRANCH  20  21
HETATM   21  C16 UNL     1      15.324   7.745   2.401  1.00  0.00     0.181 C 
HETATM   22  N2  UNL     1      15.944   7.366   3.679  1.00  0.00    -0.346 N 
HETATM   23  C17 UNL     1      15.435   7.733   4.966  1.00  0.00     0.241 C 
HETATM   24  H12 UNL     1      16.791   6.754   3.651  1.00  0.00     0.163 HD
HETATM   25  O1  UNL     1      15.917   7.200   6.001  1.00  0.00    -0.271 OA
HETATM   26  C18 UNL     1      14.436   8.845   5.096  1.00  0.00     0.179 C 
HETATM   27  N3  UNL     1      13.665   8.996   3.881  1.00  0.00    -0.337 N 
HETATM   28  C21 UNL     1      13.394   8.617   6.190  1.00  0.00     0.037 C 
HETATM   29  C19 UNL     1      12.256   9.240   4.133  1.00  0.00     0.127 C 
HETATM   30  C22 UNL     1      14.197   8.733   2.580  1.00  0.00     0.243 C 
HETATM   31  C20 UNL     1      12.115   9.258   5.651  1.00  0.00     0.022 C 
HETATM   32  O2  UNL     1      13.680   9.280   1.569  1.00  0.00    -0.271 OA
ENDBRANCH  20  21
ENDBRANCH  13  20
ENDBRANCH   4  11
BRANCH   9  33
HETATM   33  C25 UNL     1      22.103   9.160  -4.805  1.00  0.00     0.075 C 
BRANCH  33  34
HETATM   34  C26 UNL     1      21.829   8.817  -6.287  1.00  0.00     0.181 C 
HETATM   35  N5  UNL     1      23.082   8.412  -6.941  1.00  0.00    -0.346 N 
HETATM   36  C27 UNL     1      23.229   8.439  -8.367  1.00  0.00     0.241 C 
HETATM   37  H25 UNL     1      23.832   7.945  -6.381  1.00  0.00     0.163 HD
HETATM   38  C28 UNL     1      22.150   9.059  -9.214  1.00  0.00     0.179 C 
HETATM   39  O4  UNL     1      24.224   7.886  -8.907  1.00  0.00    -0.271 OA
HETATM   40  N6  UNL     1      21.439  10.075  -8.460  1.00  0.00    -0.337 N 
HETATM   41  C31 UNL     1      22.678   9.789 -10.450  1.00  0.00     0.037 C 
HETATM   42  C29 UNL     1      21.198  11.284  -9.227  1.00  0.00     0.127 C 
HETATM   43  C32 UNL     1      21.207   9.967  -7.049  1.00  0.00     0.243 C 
HETATM   44  C30 UNL     1      21.757  10.997 -10.617  1.00  0.00     0.022 C 
HETATM   45  O3  UNL     1      20.459  10.802  -6.473  1.00  0.00    -0.271 OA
ENDBRANCH  33  34
ENDBRANCH   9  33
TORSDOF 5
ENDMDL
MODEL 9
REMARK VINA RESULT:     -10.6      3.243      6.971
REMARK  5 active torsions:
REMARK  status: ('A' for Active; 'I' for Inactive)
REMARK    1  A    between atoms: C4_4  and  N1_7 
REMARK    2  A    between atoms: C8_9  and  C15_16 
REMARK    3  A    between atoms: C15_16  and  C16_17 
REMARK    4  A    between atoms: C24_30  and  C25_31 
REMARK    5  A    between atoms: C25_31  and  C26_32 
ROOT
HETATM    1  C1  UNL     1      17.145   5.558  -0.876  1.00  0.00    -0.002 A 
HETATM    2  C2  UNL     1      18.161   4.694  -1.189  1.00  0.00     0.045 A 
HETATM    3  C3  UNL     1      19.081   4.978  -2.195  1.00  0.00     0.060 A 
HETATM    4  C4  UNL     1      18.956   6.203  -2.888  1.00  0.00     0.041 A 
HETATM    5  C5  UNL     1      17.899   7.090  -2.560  1.00  0.00     0.031 A 
HETATM    6  C6  UNL     1      16.983   6.772  -1.541  1.00  0.00     0.016 A 
HETATM    7  N4  UNL     1      18.109   3.592  -0.421  1.00  0.00    -0.365 N 
HETATM    8  C23 UNL     1      17.044   3.753   0.396  1.00  0.00     0.096 A 
HETATM    9  C24 UNL     1      16.414   4.966   0.136  1.00  0.00    -0.028 A 
HETATM   10  H20 UNL     1      18.757   2.772  -0.450  1.00  0.00     0.165 HD
ENDROOT
BRANCH   4  11
HETATM   11  N1  UNL     1      19.856   6.528  -3.962  1.00  0.00    -0.321 N 
HETATM   12  C7  UNL     1      19.614   6.316  -5.278  1.00  0.00     0.105 A 
HETATM   13  C8  UNL     1      20.716   6.684  -6.039  1.00  0.00    -0.027 A 
HETATM   14  C9  UNL     1      21.663   7.134  -5.138  1.00  0.00    -0.001 A 
HETATM   15  C10 UNL     1      21.108   7.036  -3.885  1.00  0.00     0.050 A 
HETATM   16  C14 UNL     1      22.959   7.615  -5.336  1.00  0.00     0.014 A 
HETATM   17  C11 UNL     1      21.804   7.464  -2.749  1.00  0.00     0.031 A 
HETATM   18  C12 UNL     1      23.109   7.959  -2.921  1.00  0.00     0.002 A 
HETATM   19  C13 UNL     1      23.686   8.027  -4.206  1.00  0.00     0.001 A 
BRANCH  13  20
HETATM   20  C15 UNL     1      20.859   6.528  -7.526  1.00  0.00     0.075 C 
BRANCH  20  21
HETATM   21  C16 UNL     1      20.179   7.679  -8.288  1.00  0.00     0.181 C 
HETATM   22  N2  UNL     1      20.569   8.970  -7.702  1.00  0.00    -0.346 N 
HETATM   23  C17 UNL     1      19.670   9.855  -7.024  1.00  0.00     0.241 C 
HETATM   24  H12 UNL     1      21.576   9.245  -7.747  1.00  0.00     0.163 HD
HETATM   25  O1  UNL     1      20.131  10.839  -6.385  1.00  0.00    -0.271 OA
HETATM   26  C18 UNL     1      18.187   9.699  -7.186  1.00  0.00     0.179 C 
HETATM   27  N3  UNL     1      17.839   8.331  -7.506  1.00  0.00    -0.337 N 
HETATM   28  C21 UNL     1      17.389  10.016  -5.923  1.00  0.00     0.037 C 
HETATM   29  C19 UNL     1      16.657   7.870  -6.801  1.00  0.00     0.127 C 
HETATM   30  C22 UNL     1      18.684   7.470  -8.273  1.00  0.00     0.243 C 
HETATM   31  C20 UNL     1      16.199   9.057  -5.961  1.00  0.00     0.022 C 
HETATM   32  O2  UNL     1      18.184   6.490  -8.890  1.00  0.00    -0.271 OA
ENDBRANCH  20  21
ENDBRANCH  13  20
ENDBRANCH   4  11
BRANCH   9  33
HETATM   33  C25 UNL     1      15.177   5.498   0.808  1.00  0.00     0.075 C 
BRANCH  33  34
HETATM   34  C26 UNL     1      15.466   6.752   1.665  1.00  0.00     0.181 C 
HETATM   35  N5  UNL     1      15.647   6.360   3.070  1.00  0.00    -0.346 N 
HETATM   36  C27 UNL     1      15.514   7.307   4.139  1.00  0.00     0.241 C 
HETATM   37  H25 UNL     1      16.034   5.415   3.300  1.00  0.00     0.163 HD
HETATM   38  C28 UNL     1      15.005   8.692   3.845  1.00  0.00     0.179 C 
HETATM   39  O4  UNL     1      15.884   6.997   5.303  1.00  0.00    -0.271 OA
HETATM   40  N6  UNL     1      14.149   8.677   2.673  1.00  0.00    -0.337 N 
HETATM   41  C31 UNL     1      14.134   9.279   4.956  1.00  0.00     0.037 C 
HETATM   42  C29 UNL     1      12.943   9.467   2.843  1.00  0.00     0.127 C 
HETATM   43  C32 UNL     1      14.373   7.795   1.565  1.00  0.00     0.243 C 
HETATM   44  C30 UNL     1      13.063  10.091   4.230  1.00  0.00     0.022 C 
HETATM   45  O3  UNL     1      13.690   7.925   0.514  1.00  0.00    -0.271 OA
ENDBRANCH  33  34
ENDBRANCH   9  33
TORSDOF 5
ENDMDL
MODEL 10
REMARK VINA RESULT:     -10.5      3.276     12.557
REMARK  5 active torsions:
REMARK  status: ('A' for Active; 'I' for Inactive)
REMARK    1  A    between atoms: C4_4  and  N1_7 
REMARK    2  A    between atoms: C8_9  and  C15_16 
REMARK    3  A    between atoms: C15_16  and  C16_17 
REMARK    4  A    between atoms: C24_30  and  C25_31 
REMARK    5  A    between atoms: C25_31  and  C26_32 
ROOT
HETATM    1  C1  UNL     1      13.818   8.461   3.837  1.00  0.00    -0.002 A 
HETATM    2  C2  UNL     1      14.637   8.889   4.849  1.00  0.00     0.045 A 
HETATM    3  C3  UNL     1      14.376  10.060   5.558  1.00  0.00     0.060 A 
HETATM    4  C4  UNL     1      13.222  10.802   5.221  1.00  0.00     0.041 A 
HETATM    5  C5  UNL     1      12.382  10.354   4.169  1.00  0.00     0.031 A 
HETATM    6  C6  UNL     1      12.676   9.169   3.470  1.00  0.00     0.016 A 
HETATM    7  N4  UNL     1      15.675   8.051   5.016  1.00  0.00    -0.365 N 
HETATM    8  C23 UNL     1      15.517   7.072   4.097  1.00  0.00     0.096 A 
HETATM    9  C24 UNL     1      14.372   7.298   3.339  1.00  0.00    -0.028 A 
HETATM   10  H20 UNL     1      16.450   8.138   5.711  1.00  0.00     0.165 HD
ENDROOT
BRANCH   4  11
HETATM   11  N1  UNL     1      12.927  12.038   5.895  1.00  0.00    -0.321 N 
HETATM   12  C7  UNL     1      11.701  12.604   5.992  1.00  0.00     0.105 A 
HETATM   13  C8  UNL     1      11.781  13.823   6.652  1.00  0.00    -0.027 A 
HETATM   14  C9  UNL     1      13.117  13.998   6.961  1.00  0.00    -0.001 A 
HETATM   15  C10 UNL     1      13.787  12.892   6.497  1.00  0.00     0.050 A 
HETATM   16  C14 UNL     1      13.777  15.043   7.609  1.00  0.00     0.014 A 
HETATM   17  C11 UNL     1      15.163  12.741   6.700  1.00  0.00     0.031 A 
HETATM   18  C12 UNL     1      15.852  13.776   7.357  1.00  0.00     0.002 A 
HETATM   19  C13 UNL     1      15.164  14.925   7.802  1.00  0.00     0.001 A 
BRANCH  13  20
HETATM   20  C15 UNL     1      10.648  14.782   6.886  1.00  0.00     0.075 C 
BRANCH  20  21
HETATM   21  C16 UNL     1       9.362  14.329   6.172  1.00  0.00     0.181 C 
HETATM   22  N2  UNL     1       9.466  14.597   4.730  1.00  0.00    -0.346 N 
HETATM   23  C17 UNL     1       8.659  15.546   4.023  1.00  0.00     0.241 C 
HETATM   24  H12 UNL     1      10.204  14.093   4.189  1.00  0.00     0.163 HD
HETATM   25  O1  UNL     1       8.952  15.849   2.835  1.00  0.00    -0.271 OA
HETATM   26  C18 UNL     1       7.393  16.069   4.636  1.00  0.00     0.179 C 
HETATM   27  N3  UNL     1       7.457  16.025   6.081  1.00  0.00    -0.337 N 
HETATM   28  C21 UNL     1       7.104  17.532   4.306  1.00  0.00     0.037 C 
HETATM   29  C19 UNL     1       6.898  17.209   6.707  1.00  0.00     0.127 C 
HETATM   30  C22 UNL     1       8.175  15.019   6.800  1.00  0.00     0.243 C 
HETATM   31  C20 UNL     1       6.421  18.088   5.556  1.00  0.00     0.022 C 
HETATM   32  O2  UNL     1       7.855  14.751   7.990  1.00  0.00    -0.271 OA
ENDBRANCH  20  21
ENDBRANCH  13  20
ENDBRANCH   4  11
BRANCH   9  33
HETATM   33  C25 UNL     1      13.869   6.457   2.198  1.00  0.00     0.075 C 
BRANCH  33  34
HETATM   34  C26 UNL     1      15.015   5.751   1.437  1.00  0.00     0.181 C 
HETATM   35  N5  UNL     1      15.865   6.755   0.781  1.00  0.00    -0.346 N 
HETATM   36  C27 UNL     1      16.732   6.410  -0.309  1.00  0.00     0.241 C 
HETATM   37  H25 UNL     1      15.969   7.705   1.206  1.00  0.00     0.163 HD
HETATM   38  C28 UNL     1      16.648   5.037  -0.919  1.00  0.00     0.179 C 
HETATM   39  O4  UNL     1      17.600   7.233  -0.705  1.00  0.00    -0.271 OA
HETATM   40  N6  UNL     1      15.315   4.490  -0.748  1.00  0.00    -0.337 N 
HETATM   41  C31 UNL     1      16.887   5.017  -2.429  1.00  0.00     0.037 C 
HETATM   42  C29 UNL     1      14.810   3.845  -1.947  1.00  0.00     0.127 C 
HETATM   43  C32 UNL     1      14.512   4.760   0.409  1.00  0.00     0.243 C 
HETATM   44  C30 UNL     1      15.944   3.940  -2.963  1.00  0.00     0.022 C 
HETATM   45  O3  UNL     1      13.426   4.143   0.575  1.00  0.00    -0.271 OA
ENDBRANCH  33  34
ENDBRANCH   9  33
TORSDOF 5
ENDMDL
MODEL 11
REMARK VINA RESULT:     -10.4     13.864     15.954
REMARK  5 active torsions:
REMARK  status: ('A' for Active; 'I' for Inactive)
REMARK    1  A    between atoms: C4_4  and  N1_7 
REMARK    2  A    between atoms: C8_9  and  C15_16 
REMARK    3  A    between atoms: C15_16  and  C16_17 
REMARK    4  A    between atoms: C24_30  and  C25_31 
REMARK    5  A    between atoms: C25_31  and  C26_32 
ROOT
HETATM    1  C1  UNL     1      26.596   0.278   1.393  1.00  0.00    -0.002 A 
HETATM    2  C2  UNL     1      27.644  -0.054   0.574  1.00  0.00     0.045 A 
HETATM    3  C3  UNL     1      27.631  -1.212  -0.201  1.00  0.00     0.060 A 
HETATM    4  C4  UNL     1      26.490  -2.043  -0.140  1.00  0.00     0.041 A 
HETATM    5  C5  UNL     1      25.412  -1.694   0.713  1.00  0.00     0.031 A 
HETATM    6  C6  UNL     1      25.457  -0.519   1.486  1.00  0.00     0.016 A 
HETATM    7  N4  UNL     1      28.627   0.859   0.657  1.00  0.00    -0.365 N 
HETATM    8  C23 UNL     1      28.202   1.789   1.541  1.00  0.00     0.096 A 
HETATM    9  C24 UNL     1      26.940   1.457   2.025  1.00  0.00    -0.028 A 
HETATM   10  H20 UNL     1      29.538   0.852   0.146  1.00  0.00     0.165 HD
ENDROOT
BRANCH   4  11
HETATM   11  N1  UNL     1      26.442  -3.270  -0.890  1.00  0.00    -0.321 N 
HETATM   12  C7  UNL     1      26.346  -3.360  -2.238  1.00  0.00     0.105 A 
HETATM   13  C8  UNL     1      26.258  -4.690  -2.629  1.00  0.00    -0.027 A 
HETATM   14  C9  UNL     1      26.299  -5.430  -1.462  1.00  0.00    -0.001 A 
HETATM   15  C10 UNL     1      26.420  -4.539  -0.423  1.00  0.00     0.050 A 
HETATM   16  C14 UNL     1      26.236  -6.808  -1.250  1.00  0.00     0.014 A 
HETATM   17  C11 UNL     1      26.537  -4.982   0.899  1.00  0.00     0.031 A 
HETATM   18  C12 UNL     1      26.484  -6.366   1.141  1.00  0.00     0.002 A 
HETATM   19  C13 UNL     1      26.326  -7.274   0.073  1.00  0.00     0.001 A 
BRANCH  13  20
HETATM   20  C15 UNL     1      26.064  -5.191  -4.032  1.00  0.00     0.075 C 
BRANCH  20  21
HETATM   21  C16 UNL     1      24.867  -4.511  -4.720  1.00  0.00     0.181 C 
HETATM   22  N2  UNL     1      23.879  -5.522  -5.123  1.00  0.00    -0.346 N 
HETATM   23  C17 UNL     1      23.550  -5.836  -6.481  1.00  0.00     0.241 C 
HETATM   24  H12 UNL     1      23.411  -6.077  -4.372  1.00  0.00     0.163 HD
HETATM   25  O1  UNL     1      22.841  -6.848  -6.731  1.00  0.00    -0.271 OA
HETATM   26  C18 UNL     1      23.924  -4.895  -7.588  1.00  0.00     0.179 C 
HETATM   27  N3  UNL     1      25.082  -4.104  -7.230  1.00  0.00    -0.337 N 
HETATM   28  C21 UNL     1      24.320  -5.594  -8.887  1.00  0.00     0.037 C 
HETATM   29  C19 UNL     1      26.020  -3.948  -8.326  1.00  0.00     0.127 C 
HETATM   30  C22 UNL     1      25.363  -3.695  -5.889  1.00  0.00     0.243 C 
HETATM   31  C20 UNL     1      25.400  -4.700  -9.498  1.00  0.00     0.022 C 
HETATM   32  O2  UNL     1      26.084  -2.681  -5.681  1.00  0.00    -0.271 OA
ENDBRANCH  20  21
ENDBRANCH  13  20
ENDBRANCH   4  11
BRANCH   9  33
HETATM   33  C25 UNL     1      26.141   2.217   3.047  1.00  0.00     0.075 C 
BRANCH  33  34
HETATM   34  C26 UNL     1      26.905   2.395   4.380  1.00  0.00     0.181 C 
HETATM   35  N5  UNL     1      26.934   1.118   5.107  1.00  0.00    -0.346 N 
HETATM   36  C27 UNL     1      27.192   1.061   6.517  1.00  0.00     0.241 C 
HETATM   37  H25 UNL     1      26.924   0.217   4.576  1.00  0.00     0.163 HD
HETATM   38  C28 UNL     1      27.261   2.337   7.312  1.00  0.00     0.179 C 
HETATM   39  O4  UNL     1      27.425  -0.047   7.069  1.00  0.00    -0.271 OA
HETATM   40  N6  UNL     1      26.454   3.366   6.684  1.00  0.00    -0.337 N 
HETATM   41  C31 UNL     1      26.699   2.213   8.729  1.00  0.00     0.037 C 
HETATM   42  C29 UNL     1      25.653   4.117   7.635  1.00  0.00     0.127 C 
HETATM   43  C32 UNL     1      26.304   3.469   5.261  1.00  0.00     0.243 C 
HETATM   44  C30 UNL     1      26.022   3.554   9.004  1.00  0.00     0.022 C 
HETATM   45  O3  UNL     1      25.715   4.466   4.765  1.00  0.00    -0.271 OA
ENDBRANCH  33  34
ENDBRANCH   9  33
TORSDOF 5
ENDMDL
MODEL 12
REMARK VINA RESULT:     -10.4      2.469      3.667
REMARK  5 active torsions:
REMARK  status: ('A' for Active; 'I' for Inactive)
REMARK    1  A    between atoms: C4_4  and  N1_7 
REMARK    2  A    between atoms: C8_9  and  C15_16 
REMARK    3  A    between atoms: C15_16  and  C16_17 
REMARK    4  A    between atoms: C24_30  and  C25_31 
REMARK    5  A    between atoms: C25_31  and  C26_32 
ROOT
HETATM    1  C1  UNL     1      13.911   8.869   3.591  1.00  0.00    -0.002 A 
HETATM    2  C2  UNL     1      14.645   7.785   3.997  1.00  0.00     0.045 A 
HETATM    3  C3  UNL     1      15.233   6.914   3.084  1.00  0.00     0.060 A 
HETATM    4  C4  UNL     1      15.072   7.181   1.706  1.00  0.00     0.041 A 
HETATM    5  C5  UNL     1      14.307   8.303   1.294  1.00  0.00     0.031 A 
HETATM    6  C6  UNL     1      13.722   9.162   2.242  1.00  0.00     0.016 A 
HETATM    7  N4  UNL     1      14.681   7.704   5.339  1.00  0.00    -0.365 N 
HETATM    8  C23 UNL     1      13.960   8.752   5.798  1.00  0.00     0.096 A 
HETATM    9  C24 UNL     1      13.459   9.498   4.735  1.00  0.00    -0.028 A 
HETATM   10  H20 UNL     1      15.164   6.978   5.914  1.00  0.00     0.165 HD
ENDROOT
BRANCH   4  11
HETATM   11  N1  UNL     1      15.625   6.291   0.721  1.00  0.00    -0.321 N 
HETATM   12  C7  UNL     1      16.881   6.364   0.218  1.00  0.00     0.105 A 
HETATM   13  C8  UNL     1      17.068   5.395  -0.759  1.00  0.00    -0.027 A 
HETATM   14  C9  UNL     1      15.868   4.713  -0.848  1.00  0.00    -0.001 A 
HETATM   15  C10 UNL     1      15.015   5.275   0.070  1.00  0.00     0.050 A 
HETATM   16  C14 UNL     1      15.478   3.651  -1.667  1.00  0.00     0.014 A 
HETATM   17  C11 UNL     1      13.724   4.771   0.261  1.00  0.00     0.031 A 
HETATM   18  C12 UNL     1      13.306   3.697  -0.545  1.00  0.00     0.002 A 
HETATM   19  C13 UNL     1      14.176   3.145  -1.510  1.00  0.00     0.001 A 
BRANCH  13  20
HETATM   20  C15 UNL     1      18.299   5.207  -1.599  1.00  0.00     0.075 C 
BRANCH  20  21
HETATM   21  C16 UNL     1      18.488   6.361  -2.598  1.00  0.00     0.181 C 
HETATM   22  N2  UNL     1      17.218   7.078  -2.786  1.00  0.00    -0.346 N 
HETATM   23  C17 UNL     1      16.476   7.103  -4.011  1.00  0.00     0.241 C 
HETATM   24  H12 UNL     1      16.806   7.570  -1.961  1.00  0.00     0.163 HD
HETATM   25  O1  UNL     1      15.307   7.574  -4.020  1.00  0.00    -0.271 OA
HETATM   26  C18 UNL     1      17.130   6.703  -5.301  1.00  0.00     0.179 C 
HETATM   27  N3  UNL     1      18.218   5.779  -5.068  1.00  0.00    -0.337 N 
HETATM   28  C21 UNL     1      16.200   5.972  -6.266  1.00  0.00     0.037 C 
HETATM   29  C19 UNL     1      18.261   4.701  -6.040  1.00  0.00     0.127 C 
HETATM   30  C22 UNL     1      19.034   5.813  -3.894  1.00  0.00     0.243 C 
HETATM   31  C20 UNL     1      17.098   4.968  -6.989  1.00  0.00     0.022 C 
HETATM   32  O2  UNL     1      20.195   5.322  -3.924  1.00  0.00    -0.271 OA
ENDBRANCH  20  21
ENDBRANCH  13  20
ENDBRANCH   4  11
BRANCH   9  33
HETATM   33  C25 UNL     1      12.584  10.718   4.827  1.00  0.00     0.075 C 
BRANCH  33  34
HETATM   34  C26 UNL     1      13.125  11.756   5.838  1.00  0.00     0.181 C 
HETATM   35  N5  UNL     1      14.585  11.620   5.951  1.00  0.00    -0.346 N 
HETATM   36  C27 UNL     1      15.302  12.136   7.081  1.00  0.00     0.241 C 
HETATM   37  H25 UNL     1      15.141  11.284   5.131  1.00  0.00     0.163 HD
HETATM   38  C28 UNL     1      14.541  12.671   8.263  1.00  0.00     0.179 C 
HETATM   39  O4  UNL     1      16.560  12.199   7.050  1.00  0.00    -0.271 OA
HETATM   40  N6  UNL     1      13.244  12.028   8.361  1.00  0.00    -0.337 N 
HETATM   41  C31 UNL     1      15.215  12.395   9.608  1.00  0.00     0.037 C 
HETATM   42  C29 UNL     1      12.903  11.643   9.719  1.00  0.00     0.127 C 
HETATM   43  C32 UNL     1      12.495  11.623   7.208  1.00  0.00     0.243 C 
HETATM   44  C30 UNL     1      14.065  12.133  10.579  1.00  0.00     0.022 C 
HETATM   45  O3  UNL     1      11.313  11.206   7.344  1.00  0.00    -0.271 OA
ENDBRANCH  33  34
ENDBRANCH   9  33
TORSDOF 5
ENDMDL
MODEL 13
REMARK VINA RESULT:     -10.4      2.636     11.428
REMARK  5 active torsions:
REMARK  status: ('A' for Active; 'I' for Inactive)
REMARK    1  A    between atoms: C4_4  and  N1_7 
REMARK    2  A    between atoms: C8_9  and  C15_16 
REMARK    3  A    between atoms: C15_16  and  C16_17 
REMARK    4  A    between atoms: C24_30  and  C25_31 
REMARK    5  A    between atoms: C25_31  and  C26_32 
ROOT
HETATM    1  C1  UNL     1      18.884   5.571  -4.291  1.00  0.00    -0.002 A 
HETATM    2  C2  UNL     1      18.609   4.410  -3.618  1.00  0.00     0.045 A 
HETATM    3  C3  UNL     1      17.743   4.381  -2.527  1.00  0.00     0.060 A 
HETATM    4  C4  UNL     1      17.129   5.590  -2.130  1.00  0.00     0.041 A 
HETATM    5  C5  UNL     1      17.423   6.789  -2.829  1.00  0.00     0.031 A 
HETATM    6  C6  UNL     1      18.305   6.784  -3.925  1.00  0.00     0.016 A 
HETATM    7  N4  UNL     1      19.287   3.376  -4.146  1.00  0.00    -0.365 N 
HETATM    8  C23 UNL     1      20.006   3.883  -5.172  1.00  0.00     0.096 A 
HETATM    9  C24 UNL     1      19.785   5.252  -5.289  1.00  0.00    -0.028 A 
HETATM   10  H20 UNL     1      19.268   2.380  -3.829  1.00  0.00     0.165 HD
ENDROOT
BRANCH   4  11
HETATM   11  N1  UNL     1      16.258   5.623  -0.986  1.00  0.00    -0.321 N 
HETATM   12  C7  UNL     1      16.494   6.308   0.158  1.00  0.00     0.105 A 
HETATM   13  C8  UNL     1      15.484   6.072   1.081  1.00  0.00    -0.027 A 
HETATM   14  C9  UNL     1      14.604   5.202   0.464  1.00  0.00    -0.001 A 
HETATM   15  C10 UNL     1      15.097   4.955  -0.795  1.00  0.00     0.050 A 
HETATM   16  C14 UNL     1      13.421   4.618   0.921  1.00  0.00     0.014 A 
HETATM   17  C11 UNL     1      14.403   4.141  -1.697  1.00  0.00     0.031 A 
HETATM   18  C12 UNL     1      13.205   3.547  -1.265  1.00  0.00     0.002 A 
HETATM   19  C13 UNL     1      12.721   3.778   0.040  1.00  0.00     0.001 A 
BRANCH  13  20
HETATM   20  C15 UNL     1      15.429   6.592   2.489  1.00  0.00     0.075 C 
BRANCH  20  21
HETATM   21  C16 UNL     1      15.454   8.130   2.530  1.00  0.00     0.181 C 
HETATM   22  N2  UNL     1      16.045   8.590   3.796  1.00  0.00    -0.346 N 
HETATM   23  C17 UNL     1      15.328   9.299   4.813  1.00  0.00     0.241 C 
HETATM   24  H12 UNL     1      17.044   8.351   3.986  1.00  0.00     0.163 HD
HETATM   25  O1  UNL     1      15.862   9.476   5.941  1.00  0.00    -0.271 OA
HETATM   26  C18 UNL     1      14.012   9.948   4.500  1.00  0.00     0.179 C 
HETATM   27  N3  UNL     1      13.348   9.277   3.404  1.00  0.00    -0.337 N 
HETATM   28  C21 UNL     1      13.008   9.898   5.650  1.00  0.00     0.037 C 
HETATM   29  C19 UNL     1      11.921   9.122   3.617  1.00  0.00     0.127 C 
HETATM   30  C22 UNL     1      14.054   8.656   2.326  1.00  0.00     0.243 C 
HETATM   31  C20 UNL     1      11.644   9.766   4.972  1.00  0.00     0.022 C 
HETATM   32  O2  UNL     1      13.480   8.489   1.216  1.00  0.00    -0.271 OA
ENDBRANCH  20  21
ENDBRANCH  13  20
ENDBRANCH   4  11
BRANCH   9  33
HETATM   33  C25 UNL     1      20.422   6.185  -6.282  1.00  0.00     0.075 C 
BRANCH  33  34
HETATM   34  C26 UNL     1      21.544   7.041  -5.651  1.00  0.00     0.181 C 
HETATM   35  N5  UNL     1      21.784   6.600  -4.268  1.00  0.00    -0.346 N 
HETATM   36  C27 UNL     1      22.444   7.443  -3.314  1.00  0.00     0.241 C 
HETATM   37  H25 UNL     1      21.617   5.601  -4.006  1.00  0.00     0.163 HD
HETATM   38  C28 UNL     1      22.745   8.873  -3.669  1.00  0.00     0.179 C 
HETATM   39  O4  UNL     1      22.827   6.964  -2.213  1.00  0.00    -0.271 OA
HETATM   40  N6  UNL     1      21.790   9.362  -4.647  1.00  0.00    -0.337 N 
HETATM   41  C31 UNL     1      22.624   9.841  -2.490  1.00  0.00     0.037 C 
HETATM   42  C29 UNL     1      21.305  10.697  -4.347  1.00  0.00     0.127 C 
HETATM   43  C32 UNL     1      21.229   8.522  -5.664  1.00  0.00     0.243 C 
HETATM   44  C30 UNL     1      22.059  11.126  -3.092  1.00  0.00     0.022 C 
HETATM   45  O3  UNL     1      20.522   9.029  -6.575  1.00  0.00    -0.271 OA
ENDBRANCH  33  34
ENDBRANCH   9  33
TORSDOF 5
ENDMDL
MODEL 14
REMARK VINA RESULT:     -10.3      9.319     12.071
REMARK  5 active torsions:
REMARK  status: ('A' for Active; 'I' for Inactive)
REMARK    1  A    between atoms: C4_4  and  N1_7 
REMARK    2  A    between atoms: C8_9  and  C15_16 
REMARK    3  A    between atoms: C15_16  and  C16_17 
REMARK    4  A    between atoms: C24_30  and  C25_31 
REMARK    5  A    between atoms: C25_31  and  C26_32 
ROOT
HETATM    1  C1  UNL     1      16.174   6.491  -8.159  1.00  0.00    -0.002 A 
HETATM    2  C2  UNL     1      17.284   7.256  -8.401  1.00  0.00     0.045 A 
HETATM    3  C3  UNL     1      18.143   7.648  -7.376  1.00  0.00     0.060 A 
HETATM    4  C4  UNL     1      17.853   7.219  -6.061  1.00  0.00     0.041 A 
HETATM    5  C5  UNL     1      16.699   6.430  -5.819  1.00  0.00     0.031 A 
HETATM    6  C6  UNL     1      15.850   6.055  -6.876  1.00  0.00     0.016 A 
HETATM    7  N4  UNL     1      17.385   7.559  -9.707  1.00  0.00    -0.365 N 
HETATM    8  C23 UNL     1      16.323   6.978 -10.309  1.00  0.00     0.096 A 
HETATM    9  C24 UNL     1      15.541   6.307  -9.373  1.00  0.00    -0.028 A 
HETATM   10  H20 UNL     1      18.129   8.131 -10.166  1.00  0.00     0.165 HD
ENDROOT
BRANCH   4  11
HETATM   11  N1  UNL     1      18.685   7.628  -4.961  1.00  0.00    -0.321 N 
HETATM   12  C7  UNL     1      18.901   8.908  -4.576  1.00  0.00     0.105 A 
HETATM   13  C8  UNL     1      19.804   8.951  -3.523  1.00  0.00    -0.027 A 
HETATM   14  C9  UNL     1      20.150   7.637  -3.267  1.00  0.00    -0.001 A 
HETATM   15  C10 UNL     1      19.446   6.856  -4.152  1.00  0.00     0.050 A 
HETATM   16  C14 UNL     1      21.025   7.086  -2.330  1.00  0.00     0.014 A 
HETATM   17  C11 UNL     1      19.539   5.460  -4.117  1.00  0.00     0.031 A 
HETATM   18  C12 UNL     1      20.409   4.878  -3.178  1.00  0.00     0.002 A 
HETATM   19  C13 UNL     1      21.154   5.687  -2.294  1.00  0.00     0.001 A 
BRANCH  13  20
HETATM   20  C15 UNL     1      20.351  10.191  -2.873  1.00  0.00     0.075 C 
BRANCH  20  21
HETATM   21  C16 UNL     1      21.458  10.838  -3.723  1.00  0.00     0.181 C 
HETATM   22  N2  UNL     1      20.928  11.207  -5.044  1.00  0.00    -0.346 N 
HETATM   23  C17 UNL     1      21.337  10.606  -6.278  1.00  0.00     0.241 C 
HETATM   24  H12 UNL     1      20.172  11.928  -5.085  1.00  0.00     0.163 HD
HETATM   25  O1  UNL     1      20.688  10.846  -7.331  1.00  0.00    -0.271 OA
HETATM   26  C18 UNL     1      22.608   9.812  -6.348  1.00  0.00     0.179 C 
HETATM   27  N3  UNL     1      22.941   9.247  -5.059  1.00  0.00    -0.337 N 
HETATM   28  C21 UNL     1      22.537   8.612  -7.290  1.00  0.00     0.037 C 
HETATM   29  C19 UNL     1      23.430   7.884  -5.149  1.00  0.00     0.127 C 
HETATM   30  C22 UNL     1      22.630   9.891  -3.820  1.00  0.00     0.243 C 
HETATM   31  C20 UNL     1      23.420   7.549  -6.637  1.00  0.00     0.022 C 
HETATM   32  O2  UNL     1      23.298   9.616  -2.786  1.00  0.00    -0.271 OA
ENDBRANCH  20  21
ENDBRANCH  13  20
ENDBRANCH   4  11
BRANCH   9  33
HETATM   33  C25 UNL     1      14.261   5.564  -9.638  1.00  0.00     0.075 C 
BRANCH  33  34
HETATM   34  C26 UNL     1      13.355   6.296 -10.655  1.00  0.00     0.181 C 
HETATM   35  N5  UNL     1      12.179   6.845  -9.963  1.00  0.00    -0.346 N 
HETATM   36  C27 UNL     1      10.986   7.200 -10.675  1.00  0.00     0.241 C 
HETATM   37  H25 UNL     1      12.254   7.134  -8.961  1.00  0.00     0.163 HD
HETATM   38  C28 UNL     1      10.856   6.845 -12.132  1.00  0.00     0.179 C 
HETATM   39  O4  UNL     1      10.084   7.864 -10.098  1.00  0.00    -0.271 OA
HETATM   40  N6  UNL     1      11.656   5.674 -12.439  1.00  0.00    -0.337 N 
HETATM   41  C31 UNL     1       9.435   6.467 -12.551  1.00  0.00     0.037 C 
HETATM   42  C29 UNL     1      10.961   4.718 -13.283  1.00  0.00     0.127 C 
HETATM   43  C32 UNL     1      12.905   5.401 -11.790  1.00  0.00     0.243 C 
HETATM   44  C30 UNL     1       9.612   5.361 -13.590  1.00  0.00     0.022 C 
HETATM   45  O3  UNL     1      13.628   4.452 -12.198  1.00  0.00    -0.271 OA
ENDBRANCH  33  34
ENDBRANCH   9  33
TORSDOF 5
ENDMDL
MODEL 15
REMARK VINA RESULT:     -10.2      3.834     11.250
REMARK  5 active torsions:
REMARK  status: ('A' for Active; 'I' for Inactive)
REMARK    1  A    between atoms: C4_4  and  N1_7 
REMARK    2  A    between atoms: C8_9  and  C15_16 
REMARK    3  A    between atoms: C15_16  and  C16_17 
REMARK    4  A    between atoms: C24_30  and  C25_31 
REMARK    5  A    between atoms: C25_31  and  C26_32 
ROOT
HETATM    1  C1  UNL     1      14.862   6.679   0.789  1.00  0.00    -0.002 A 
HETATM    2  C2  UNL     1      14.245   6.147   1.891  1.00  0.00     0.045 A 
HETATM    3  C3  UNL     1      14.315   6.761   3.140  1.00  0.00     0.060 A 
HETATM    4  C4  UNL     1      15.032   7.974   3.248  1.00  0.00     0.041 A 
HETATM    5  C5  UNL     1      15.671   8.516   2.103  1.00  0.00     0.031 A 
HETATM    6  C6  UNL     1      15.584   7.869   0.857  1.00  0.00     0.016 A 
HETATM    7  N4  UNL     1      13.619   4.997   1.584  1.00  0.00    -0.365 N 
HETATM    8  C23 UNL     1      13.837   4.792   0.265  1.00  0.00     0.096 A 
HETATM    9  C24 UNL     1      14.615   5.819  -0.263  1.00  0.00    -0.028 A 
HETATM   10  H20 UNL     1      13.075   4.383   2.230  1.00  0.00     0.165 HD
ENDROOT
BRANCH   4  11
HETATM   11  N1  UNL     1      15.168   8.628   4.522  1.00  0.00    -0.321 N 
HETATM   12  C7  UNL     1      16.130   8.365   5.438  1.00  0.00     0.105 A 
HETATM   13  C8  UNL     1      15.933   9.129   6.581  1.00  0.00    -0.027 A 
HETATM   14  C9  UNL     1      14.798   9.882   6.340  1.00  0.00    -0.001 A 
HETATM   15  C10 UNL     1      14.362   9.562   5.077  1.00  0.00     0.050 A 
HETATM   16  C14 UNL     1      14.129  10.812   7.138  1.00  0.00     0.014 A 
HETATM   17  C11 UNL     1      13.249  10.196   4.513  1.00  0.00     0.031 A 
HETATM   18  C12 UNL     1      12.561  11.143   5.293  1.00  0.00     0.002 A 
HETATM   19  C13 UNL     1      12.995  11.443   6.602  1.00  0.00     0.001 A 
BRANCH  13  20
HETATM   20  C15 UNL     1      16.744   9.065   7.843  1.00  0.00     0.075 C 
BRANCH  20  21
HETATM   21  C16 UNL     1      17.430  10.408   8.149  1.00  0.00     0.181 C 
HETATM   22  N2  UNL     1      18.072  10.933   6.935  1.00  0.00    -0.346 N 
HETATM   23  C17 UNL     1      19.486  11.079   6.765  1.00  0.00     0.241 C 
HETATM   24  H12 UNL     1      17.460  11.181   6.125  1.00  0.00     0.163 HD
HETATM   25  O1  UNL     1      19.951  11.349   5.625  1.00  0.00    -0.271 OA
HETATM   26  C18 UNL     1      20.399  11.051   7.956  1.00  0.00     0.179 C 
HETATM   27  N3  UNL     1      19.819  10.286   9.038  1.00  0.00    -0.337 N 
HETATM   28  C21 UNL     1      21.746  10.383   7.688  1.00  0.00     0.037 C 
HETATM   29  C19 UNL     1      20.786   9.441   9.714  1.00  0.00     0.127 C 
HETATM   30  C22 UNL     1      18.411  10.219   9.280  1.00  0.00     0.243 C 
HETATM   31  C20 UNL     1      22.112   9.699   9.005  1.00  0.00     0.022 C 
HETATM   32  O2  UNL     1      17.987   9.937  10.434  1.00  0.00    -0.271 OA
ENDBRANCH  20  21
ENDBRANCH  13  20
ENDBRANCH   4  11
BRANCH   9  33
HETATM   33  C25 UNL     1      15.101   5.939  -1.681  1.00  0.00     0.075 C 
BRANCH  33  34
HETATM   34  C26 UNL     1      16.590   5.547  -1.828  1.00  0.00     0.181 C 
HETATM   35  N5  UNL     1      17.401   6.756  -2.040  1.00  0.00    -0.346 N 
HETATM   36  C27 UNL     1      18.714   6.689  -2.612  1.00  0.00     0.241 C 
HETATM   37  H25 UNL     1      17.093   7.666  -1.628  1.00  0.00     0.163 HD
HETATM   38  C28 UNL     1      19.214   5.386  -3.174  1.00  0.00     0.179 C 
HETATM   39  O4  UNL     1      19.465   7.701  -2.581  1.00  0.00    -0.271 OA
HETATM   40  N6  UNL     1      18.102   4.569  -3.620  1.00  0.00    -0.337 N 
HETATM   41  C31 UNL     1      20.100   5.546  -4.411  1.00  0.00     0.037 C 
HETATM   42  C29 UNL     1      18.339   3.943  -4.909  1.00  0.00     0.127 C 
HETATM   43  C32 UNL     1      16.829   4.570  -2.959  1.00  0.00     0.243 C 
HETATM   44  C30 UNL     1      19.756   4.352  -5.300  1.00  0.00     0.022 C 
HETATM   45  O3  UNL     1      15.948   3.734  -3.296  1.00  0.00    -0.271 OA
ENDBRANCH  33  34
ENDBRANCH   9  33
TORSDOF 5
ENDMDL
MODEL 16
REMARK VINA RESULT:     -10.2      2.829      4.135
REMARK  5 active torsions:
REMARK  status: ('A' for Active; 'I' for Inactive)
REMARK    1  A    between atoms: C4_4  and  N1_7 
REMARK    2  A    between atoms: C8_9  and  C15_16 
REMARK    3  A    between atoms: C15_16  and  C16_17 
REMARK    4  A    between atoms: C24_30  and  C25_31 
REMARK    5  A    between atoms: C25_31  and  C26_32 
ROOT
HETATM    1  C1  UNL     1      14.089   9.270   4.248  1.00  0.00    -0.002 A 
HETATM    2  C2  UNL     1      13.332   9.171   3.110  1.00  0.00     0.045 A 
HETATM    3  C3  UNL     1      13.732   8.387   2.029  1.00  0.00     0.060 A 
HETATM    4  C4  UNL     1      14.944   7.670   2.137  1.00  0.00     0.041 A 
HETATM    5  C5  UNL     1      15.723   7.781   3.317  1.00  0.00     0.031 A 
HETATM    6  C6  UNL     1      15.293   8.584   4.389  1.00  0.00     0.016 A 
HETATM    7  N4  UNL     1      12.222   9.923   3.202  1.00  0.00    -0.365 N 
HETATM    8  C23 UNL     1      12.269  10.512   4.418  1.00  0.00     0.096 A 
HETATM    9  C24 UNL     1      13.423  10.133   5.097  1.00  0.00    -0.028 A 
HETATM   10  H20 UNL     1      11.475  10.036   2.481  1.00  0.00     0.165 HD
ENDROOT
BRANCH   4  11
HETATM   11  N1  UNL     1      15.422   6.877   1.035  1.00  0.00    -0.321 N 
HETATM   12  C7  UNL     1      16.574   7.095   0.356  1.00  0.00     0.105 A 
HETATM   13  C8  UNL     1      16.700   6.186  -0.686  1.00  0.00    -0.027 A 
HETATM   14  C9  UNL     1      15.571   5.391  -0.632  1.00  0.00    -0.001 A 
HETATM   15  C10 UNL     1      14.818   5.829   0.430  1.00  0.00     0.050 A 
HETATM   16  C14 UNL     1      15.161   4.326  -1.438  1.00  0.00     0.014 A 
HETATM   17  C11 UNL     1      13.624   5.191   0.784  1.00  0.00     0.031 A 
HETATM   18  C12 UNL     1      13.192   4.111  -0.006  1.00  0.00     0.002 A 
HETATM   19  C13 UNL     1      13.953   3.686  -1.116  1.00  0.00     0.001 A 
BRANCH  13  20
HETATM   20  C15 UNL     1      17.801   6.155  -1.708  1.00  0.00     0.075 C 
BRANCH  20  21
HETATM   21  C16 UNL     1      17.473   7.036  -2.926  1.00  0.00     0.181 C 
HETATM   22  N2  UNL     1      16.903   6.212  -4.003  1.00  0.00    -0.346 N 
HETATM   23  C17 UNL     1      17.541   5.972  -5.262  1.00  0.00     0.241 C 
HETATM   24  H12 UNL     1      15.989   5.737  -3.826  1.00  0.00     0.163 HD
HETATM   25  O1  UNL     1      17.072   5.098  -6.040  1.00  0.00    -0.271 OA
HETATM   26  C18 UNL     1      18.673   6.846  -5.717  1.00  0.00     0.179 C 
HETATM   27  N3  UNL     1      19.369   7.425  -4.589  1.00  0.00    -0.337 N 
HETATM   28  C21 UNL     1      19.753   6.103  -6.500  1.00  0.00     0.037 C 
HETATM   29  C19 UNL     1      20.811   7.429  -4.757  1.00  0.00     0.127 C 
HETATM   30  C22 UNL     1      18.719   7.767  -3.362  1.00  0.00     0.243 C 
HETATM   31  C20 UNL     1      21.059   6.805  -6.127  1.00  0.00     0.022 C 
HETATM   32  O2  UNL     1      19.227   8.640  -2.607  1.00  0.00    -0.271 OA
ENDBRANCH  20  21
ENDBRANCH  13  20
ENDBRANCH   4  11
BRANCH   9  33
HETATM   33  C25 UNL     1      13.857  10.595   6.461  1.00  0.00     0.075 C 
BRANCH  33  34
HETATM   34  C26 UNL     1      14.819  11.804   6.394  1.00  0.00     0.181 C 
HETATM   35  N5  UNL     1      15.972  11.567   7.275  1.00  0.00    -0.346 N 
HETATM   36  C27 UNL     1      16.798  12.644   7.739  1.00  0.00     0.241 C 
HETATM   37  H25 UNL     1      16.302  10.589   7.447  1.00  0.00     0.163 HD
HETATM   38  C28 UNL     1      16.384  14.066   7.472  1.00  0.00     0.179 C 
HETATM   39  O4  UNL     1      17.895  12.395   8.307  1.00  0.00    -0.271 OA
HETATM   40  N6  UNL     1      14.941  14.156   7.347  1.00  0.00    -0.337 N 
HETATM   41  C31 UNL     1      16.739  15.035   8.601  1.00  0.00     0.037 C 
HETATM   42  C29 UNL     1      14.381  15.293   8.056  1.00  0.00     0.127 C 
HETATM   43  C32 UNL     1      14.149  13.107   6.773  1.00  0.00     0.243 C 
HETATM   44  C30 UNL     1      15.581  16.030   8.644  1.00  0.00     0.022 C 
HETATM   45  O3  UNL     1      12.923  13.298   6.554  1.00  0.00    -0.271 OA
ENDBRANCH  33  34
ENDBRANCH   9  33
TORSDOF 5
ENDMDL
MODEL 17
REMARK VINA RESULT:     -10.2      3.515     10.868
REMARK  5 active torsions:
REMARK  status: ('A' for Active; 'I' for Inactive)
REMARK    1  A    between atoms: C4_4  and  N1_7 
REMARK    2  A    between atoms: C8_9  and  C15_16 
REMARK    3  A    between atoms: C15_16  and  C16_17 
REMARK    4  A    between atoms: C24_30  and  C25_31 
REMARK    5  A    between atoms: C25_31  and  C26_32 
ROOT
HETATM    1  C1  UNL     1      15.318   6.081  -0.308  1.00  0.00    -0.002 A 
HETATM    2  C2  UNL     1      14.369   5.632   0.571  1.00  0.00     0.045 A 
HETATM    3  C3  UNL     1      14.228   6.182   1.844  1.00  0.00     0.060 A 
HETATM    4  C4  UNL     1      15.086   7.243   2.211  1.00  0.00     0.041 A 
HETATM    5  C5  UNL     1      16.070   7.699   1.295  1.00  0.00     0.031 A 
HETATM    6  C6  UNL     1      16.188   7.119   0.019  1.00  0.00     0.016 A 
HETATM    7  N4  UNL     1      13.656   4.625   0.038  1.00  0.00    -0.365 N 
HETATM    8  C23 UNL     1      14.157   4.427  -1.202  1.00  0.00     0.096 A 
HETATM    9  C24 UNL     1      15.200   5.314  -1.451  1.00  0.00    -0.028 A 
HETATM   10  H20 UNL     1      12.875   4.097   0.488  1.00  0.00     0.165 HD
ENDROOT
BRANCH   4  11
HETATM   11  N1  UNL     1      15.010   7.820   3.526  1.00  0.00    -0.321 N 
HETATM   12  C7  UNL     1      15.833   7.524   4.560  1.00  0.00     0.105 A 
HETATM   13  C8  UNL     1      15.443   8.211   5.702  1.00  0.00    -0.027 A 
HETATM   14  C9  UNL     1      14.332   8.949   5.337  1.00  0.00    -0.001 A 
HETATM   15  C10 UNL     1      14.099   8.698   4.007  1.00  0.00     0.050 A 
HETATM   16  C14 UNL     1      13.521   9.811   6.078  1.00  0.00     0.014 A 
HETATM   17  C11 UNL     1      13.063   9.339   3.319  1.00  0.00     0.031 A 
HETATM   18  C12 UNL     1      12.235  10.218   4.040  1.00  0.00     0.002 A 
HETATM   19  C13 UNL     1      12.459  10.447   5.414  1.00  0.00     0.001 A 
BRANCH  13  20
HETATM   20  C15 UNL     1      16.059   8.088   7.066  1.00  0.00     0.075 C 
BRANCH  20  21
HETATM   21  C16 UNL     1      16.685   9.414   7.531  1.00  0.00     0.181 C 
HETATM   22  N2  UNL     1      17.609   9.921   6.505  1.00  0.00    -0.346 N 
HETATM   23  C17 UNL     1      19.026  10.031   6.676  1.00  0.00     0.241 C 
HETATM   24  H12 UNL     1      17.213  10.182   5.574  1.00  0.00     0.163 HD
HETATM   25  O1  UNL     1      19.755  10.287   5.680  1.00  0.00    -0.271 OA
HETATM   26  C18 UNL     1      19.630   9.984   8.049  1.00  0.00     0.179 C 
HETATM   27  N3  UNL     1      18.792   9.236   8.960  1.00  0.00    -0.337 N 
HETATM   28  C21 UNL     1      20.986   9.283   8.106  1.00  0.00     0.037 C 
HETATM   29  C19 UNL     1      19.550   8.370   9.844  1.00  0.00     0.127 C 
HETATM   30  C22 UNL     1      17.365   9.205   8.862  1.00  0.00     0.243 C 
HETATM   31  C20 UNL     1      21.012   8.593   9.470  1.00  0.00     0.022 C 
HETATM   32  O2  UNL     1      16.673   8.935   9.881  1.00  0.00    -0.271 OA
ENDBRANCH  20  21
ENDBRANCH  13  20
ENDBRANCH   4  11
BRANCH   9  33
HETATM   33  C25 UNL     1      16.036   5.392  -2.699  1.00  0.00     0.075 C 
BRANCH  33  34
HETATM   34  C26 UNL     1      16.380   6.849  -3.087  1.00  0.00     0.181 C 
HETATM   35  N5  UNL     1      15.714   7.194  -4.352  1.00  0.00    -0.346 N 
HETATM   36  C27 UNL     1      16.160   8.290  -5.162  1.00  0.00     0.241 C 
HETATM   37  H25 UNL     1      14.805   6.741  -4.600  1.00  0.00     0.163 HD
HETATM   38  C28 UNL     1      17.441   9.000  -4.812  1.00  0.00     0.179 C 
HETATM   39  O4  UNL     1      15.447   8.696  -6.118  1.00  0.00    -0.271 OA
HETATM   40  N6  UNL     1      18.339   8.102  -4.111  1.00  0.00    -0.337 N 
HETATM   41  C31 UNL     1      18.236   9.474  -6.029  1.00  0.00     0.037 C 
HETATM   42  C29 UNL     1      19.711   8.194  -4.577  1.00  0.00     0.127 C 
HETATM   43  C32 UNL     1      17.870   7.084  -3.216  1.00  0.00     0.243 C 
HETATM   44  C30 UNL     1      19.702   9.291  -5.638  1.00  0.00     0.022 C 
HETATM   45  O3  UNL     1      18.696   6.432  -2.522  1.00  0.00    -0.271 OA
ENDBRANCH  33  34
ENDBRANCH   9  33
TORSDOF 5
ENDMDL
MODEL 18
REMARK VINA RESULT:     -10.1      7.616     12.118
REMARK  5 active torsions:
REMARK  status: ('A' for Active; 'I' for Inactive)
REMARK    1  A    between atoms: C4_4  and  N1_7 
REMARK    2  A    between atoms: C8_9  and  C15_16 
REMARK    3  A    between atoms: C15_16  and  C16_17 
REMARK    4  A    between atoms: C24_30  and  C25_31 
REMARK    5  A    between atoms: C25_31  and  C26_32 
ROOT
HETATM    1  C1  UNL     1      19.464   3.203  -4.285  1.00  0.00    -0.002 A 
HETATM    2  C2  UNL     1      19.353   2.674  -5.543  1.00  0.00     0.045 A 
HETATM    3  C3  UNL     1      20.018   1.506  -5.910  1.00  0.00     0.060 A 
HETATM    4  C4  UNL     1      20.810   0.856  -4.937  1.00  0.00     0.041 A 
HETATM    5  C5  UNL     1      20.923   1.413  -3.637  1.00  0.00     0.031 A 
HETATM    6  C6  UNL     1      20.241   2.596  -3.300  1.00  0.00     0.016 A 
HETATM    7  N4  UNL     1      18.560   3.435  -6.317  1.00  0.00    -0.365 N 
HETATM    8  C23 UNL     1      18.156   4.466  -5.541  1.00  0.00     0.096 A 
HETATM    9  C24 UNL     1      18.706   4.358  -4.267  1.00  0.00    -0.028 A 
HETATM   10  H20 UNL     1      18.306   3.269  -7.317  1.00  0.00     0.165 HD
ENDROOT
BRANCH   4  11
HETATM   11  N1  UNL     1      21.549  -0.332  -5.274  1.00  0.00    -0.321 N 
HETATM   12  C7  UNL     1      21.008  -1.553  -5.499  1.00  0.00     0.105 A 
HETATM   13  C8  UNL     1      22.007  -2.488  -5.736  1.00  0.00    -0.027 A 
HETATM   14  C9  UNL     1      23.201  -1.797  -5.644  1.00  0.00    -0.001 A 
HETATM   15  C10 UNL     1      22.889  -0.487  -5.372  1.00  0.00     0.050 A 
HETATM   16  C14 UNL     1      24.522  -2.229  -5.779  1.00  0.00     0.014 A 
HETATM   17  C11 UNL     1      23.888   0.488  -5.267  1.00  0.00     0.031 A 
HETATM   18  C12 UNL     1      25.227   0.081  -5.405  1.00  0.00     0.002 A 
HETATM   19  C13 UNL     1      25.542  -1.272  -5.652  1.00  0.00     0.001 A 
BRANCH  13  20
HETATM   20  C15 UNL     1      21.810  -3.962  -5.952  1.00  0.00     0.075 C 
BRANCH  20  21
HETATM   21  C16 UNL     1      20.320  -4.348  -5.918  1.00  0.00     0.181 C 
HETATM   22  N2  UNL     1      20.008  -5.036  -4.657  1.00  0.00    -0.346 N 
HETATM   23  C17 UNL     1      19.619  -6.411  -4.560  1.00  0.00     0.241 C 
HETATM   24  H12 UNL     1      20.114  -4.500  -3.766  1.00  0.00     0.163 HD
HETATM   25  O1  UNL     1      19.565  -6.964  -3.428  1.00  0.00    -0.271 OA
HETATM   26  C18 UNL     1      19.144  -7.152  -5.775  1.00  0.00     0.179 C 
HETATM   27  N3  UNL     1      19.704  -6.584  -6.982  1.00  0.00    -0.337 N 
HETATM   28  C21 UNL     1      19.561  -8.620  -5.808  1.00  0.00     0.037 C 
HETATM   29  C19 UNL     1      20.121  -7.592  -7.940  1.00  0.00     0.127 C 
HETATM   30  C22 UNL     1      19.998  -5.192  -7.127  1.00  0.00     0.243 C 
HETATM   31  C20 UNL     1      19.786  -8.930  -7.288  1.00  0.00     0.022 C 
HETATM   32  O2  UNL     1      20.052  -4.680  -8.278  1.00  0.00    -0.271 OA
ENDBRANCH  20  21
ENDBRANCH  13  20
ENDBRANCH   4  11
BRANCH   9  33
HETATM   33  C25 UNL     1      18.526   5.321  -3.126  1.00  0.00     0.075 C 
BRANCH  33  34
HETATM   34  C26 UNL     1      17.694   4.717  -1.971  1.00  0.00     0.181 C 
HETATM   35  N5  UNL     1      16.676   3.808  -2.519  1.00  0.00    -0.346 N 
HETATM   36  C27 UNL     1      15.517   3.433  -1.761  1.00  0.00     0.241 C 
HETATM   37  H25 UNL     1      16.864   3.295  -3.411  1.00  0.00     0.163 HD
HETATM   38  C28 UNL     1      15.235   4.114  -0.449  1.00  0.00     0.179 C 
HETATM   39  O4  UNL     1      14.781   2.494  -2.164  1.00  0.00    -0.271 OA
HETATM   40  N6  UNL     1      15.802   5.450  -0.442  1.00  0.00    -0.337 N 
HETATM   41  C31 UNL     1      13.746   4.322  -0.169  1.00  0.00     0.037 C 
HETATM   42  C29 UNL     1      14.901   6.445   0.112  1.00  0.00     0.127 C 
HETATM   43  C32 UNL     1      17.026   5.772  -1.116  1.00  0.00     0.243 C 
HETATM   44  C30 UNL     1      13.664   5.667   0.551  1.00  0.00     0.022 C 
HETATM   45  O3  UNL     1      17.549   6.907  -0.954  1.00  0.00    -0.271 OA
ENDBRANCH  33  34
ENDBRANCH   9  33
TORSDOF 5
ENDMDL
MODEL 19
REMARK VINA RESULT:     -10.1      4.065     10.972
REMARK  5 active torsions:
REMARK  status: ('A' for Active; 'I' for Inactive)
REMARK    1  A    between atoms: C4_4  and  N1_7 
REMARK    2  A    between atoms: C8_9  and  C15_16 
REMARK    3  A    between atoms: C15_16  and  C16_17 
REMARK    4  A    between atoms: C24_30  and  C25_31 
REMARK    5  A    between atoms: C25_31  and  C26_32 
ROOT
HETATM    1  C1  UNL     1      14.604   6.944   0.785  1.00  0.00    -0.002 A 
HETATM    2  C2  UNL     1      14.341   6.084   1.819  1.00  0.00     0.045 A 
HETATM    3  C3  UNL     1      14.497   6.467   3.149  1.00  0.00     0.060 A 
HETATM    4  C4  UNL     1      14.921   7.788   3.418  1.00  0.00     0.041 A 
HETATM    5  C5  UNL     1      15.195   8.670   2.342  1.00  0.00     0.031 A 
HETATM    6  C6  UNL     1      15.031   8.251   1.009  1.00  0.00     0.016 A 
HETATM    7  N4  UNL     1      13.952   4.883   1.358  1.00  0.00    -0.365 N 
HETATM    8  C23 UNL     1      13.964   4.976   0.010  1.00  0.00     0.096 A 
HETATM    9  C24 UNL     1      14.373   6.246  -0.385  1.00  0.00    -0.028 A 
HETATM   10  H20 UNL     1      13.694   4.044   1.925  1.00  0.00     0.165 HD
ENDROOT
BRANCH   4  11
HETATM   11  N1  UNL     1      15.135   8.222   4.773  1.00  0.00    -0.321 N 
HETATM   12  C7  UNL     1      16.342   8.486   5.329  1.00  0.00     0.105 A 
HETATM   13  C8  UNL     1      16.195   8.820   6.669  1.00  0.00    -0.027 A 
HETATM   14  C9  UNL     1      14.839   8.749   6.929  1.00  0.00    -0.001 A 
HETATM   15  C10 UNL     1      14.220   8.393   5.755  1.00  0.00     0.050 A 
HETATM   16  C14 UNL     1      14.119   8.970   8.105  1.00  0.00     0.014 A 
HETATM   17  C11 UNL     1      12.828   8.285   5.674  1.00  0.00     0.031 A 
HETATM   18  C12 UNL     1      12.078   8.509   6.842  1.00  0.00     0.002 A 
HETATM   19  C13 UNL     1      12.721   8.842   8.053  1.00  0.00     0.001 A 
BRANCH  13  20
HETATM   20  C15 UNL     1      17.306   9.103   7.640  1.00  0.00     0.075 C 
BRANCH  20  21
HETATM   21  C16 UNL     1      18.473   9.848   6.968  1.00  0.00     0.181 C 
HETATM   22  N2  UNL     1      19.749   9.216   7.333  1.00  0.00    -0.346 N 
HETATM   23  C17 UNL     1      20.763   9.840   8.130  1.00  0.00     0.241 C 
HETATM   24  H12 UNL     1      19.915   8.231   7.026  1.00  0.00     0.163 HD
HETATM   25  O1  UNL     1      21.730   9.154   8.555  1.00  0.00    -0.271 OA
HETATM   26  C18 UNL     1      20.752  11.326   8.341  1.00  0.00     0.179 C 
HETATM   27  N3  UNL     1      19.412  11.858   8.230  1.00  0.00    -0.337 N 
HETATM   28  C21 UNL     1      21.227  11.757   9.727  1.00  0.00     0.037 C 
HETATM   29  C19 UNL     1      19.119  12.865   9.233  1.00  0.00     0.127 C 
HETATM   30  C22 UNL     1      18.422  11.306   7.358  1.00  0.00     0.243 C 
HETATM   31  C20 UNL     1      20.396  12.998  10.056  1.00  0.00     0.022 C 
HETATM   32  O2  UNL     1      17.464  12.024   6.963  1.00  0.00    -0.271 OA
ENDBRANCH  20  21
ENDBRANCH  13  20
ENDBRANCH   4  11
BRANCH   9  33
HETATM   33  C25 UNL     1      14.548   6.736  -1.796  1.00  0.00     0.075 C 
BRANCH  33  34
HETATM   34  C26 UNL     1      15.873   6.250  -2.428  1.00  0.00     0.181 C 
HETATM   35  N5  UNL     1      16.923   6.204  -1.400  1.00  0.00    -0.346 N 
HETATM   36  C27 UNL     1      18.315   6.199  -1.747  1.00  0.00     0.241 C 
HETATM   37  H25 UNL     1      16.667   6.013  -0.404  1.00  0.00     0.163 HD
HETATM   38  C28 UNL     1      18.725   6.423  -3.177  1.00  0.00     0.179 C 
HETATM   39  O4  UNL     1      19.180   5.941  -0.868  1.00  0.00    -0.271 OA
HETATM   40  N6  UNL     1      17.728   7.218  -3.869  1.00  0.00    -0.337 N 
HETATM   41  C31 UNL     1      20.026   7.211  -3.330  1.00  0.00     0.037 C 
HETATM   42  C29 UNL     1      18.309   8.259  -4.699  1.00  0.00     0.127 C 
HETATM   43  C32 UNL     1      16.326   7.121  -3.580  1.00  0.00     0.243 C 
HETATM   44  C30 UNL     1      19.818   8.079  -4.571  1.00  0.00     0.022 C 
HETATM   45  O3  UNL     1      15.494   7.723  -4.310  1.00  0.00    -0.271 OA
ENDBRANCH  33  34
ENDBRANCH   9  33
TORSDOF 5
ENDMDL
MODEL 20
REMARK VINA RESULT:     -10.0      2.675      4.650
REMARK  5 active torsions:
REMARK  status: ('A' for Active; 'I' for Inactive)
REMARK    1  A    between atoms: C4_4  and  N1_7 
REMARK    2  A    between atoms: C8_9  and  C15_16 
REMARK    3  A    between atoms: C15_16  and  C16_17 
REMARK    4  A    between atoms: C24_30  and  C25_31 
REMARK    5  A    between atoms: C25_31  and  C26_32 
ROOT
HETATM    1  C1  UNL     1      14.052   8.630   4.246  1.00  0.00    -0.002 A 
HETATM    2  C2  UNL     1      13.506   8.892   3.017  1.00  0.00     0.045 A 
HETATM    3  C3  UNL     1      13.898   8.195   1.876  1.00  0.00     0.060 A 
HETATM    4  C4  UNL     1      14.875   7.184   2.015  1.00  0.00     0.041 A 
HETATM    5  C5  UNL     1      15.439   6.922   3.290  1.00  0.00     0.031 A 
HETATM    6  C6  UNL     1      15.023   7.647   4.422  1.00  0.00     0.016 A 
HETATM    7  N4  UNL     1      12.600   9.882   3.094  1.00  0.00    -0.365 N 
HETATM    8  C23 UNL     1      12.566  10.259   4.392  1.00  0.00     0.096 A 
HETATM    9  C24 UNL     1      13.464   9.504   5.140  1.00  0.00    -0.028 A 
HETATM   10  H20 UNL     1      12.037  10.284   2.311  1.00  0.00     0.165 HD
ENDROOT
BRANCH   4  11
HETATM   11  N1  UNL     1      15.344   6.461   0.863  1.00  0.00    -0.321 N 
HETATM   12  C7  UNL     1      16.486   6.727   0.184  1.00  0.00     0.105 A 
HETATM   13  C8  UNL     1      16.605   5.882  -0.912  1.00  0.00    -0.027 A 
HETATM   14  C9  UNL     1      15.481   5.077  -0.892  1.00  0.00    -0.001 A 
HETATM   15  C10 UNL     1      14.739   5.446   0.204  1.00  0.00     0.050 A 
HETATM   16  C14 UNL     1      15.068   4.059  -1.754  1.00  0.00     0.014 A 
HETATM   17  C11 UNL     1      13.554   4.779   0.534  1.00  0.00     0.031 A 
HETATM   18  C12 UNL     1      13.119   3.746  -0.314  1.00  0.00     0.002 A 
HETATM   19  C13 UNL     1      13.868   3.393  -1.456  1.00  0.00     0.001 A 
BRANCH  13  20
HETATM   20  C15 UNL     1      17.693   5.919  -1.947  1.00  0.00     0.075 C 
BRANCH  20  21
HETATM   21  C16 UNL     1      17.434   7.004  -3.008  1.00  0.00     0.181 C 
HETATM   22  N2  UNL     1      16.709   6.427  -4.150  1.00  0.00    -0.346 N 
HETATM   23  C17 UNL     1      17.252   6.294  -5.469  1.00  0.00     0.241 C 
HETATM   24  H12 UNL     1      15.748   6.053  -3.983  1.00  0.00     0.163 HD
HETATM   25  O1  UNL     1      16.634   5.611  -6.329  1.00  0.00    -0.271 OA
HETATM   26  C18 UNL     1      18.471   7.072  -5.869  1.00  0.00     0.179 C 
HETATM   27  N3  UNL     1      19.290   7.385  -4.718  1.00  0.00    -0.337 N 
HETATM   28  C21 UNL     1      19.404   6.319  -6.815  1.00  0.00     0.037 C 
HETATM   29  C19 UNL     1      20.709   7.228  -4.975  1.00  0.00     0.127 C 
HETATM   30  C22 UNL     1      18.748   7.624  -3.416  1.00  0.00     0.243 C 
HETATM   31  C20 UNL     1      20.808   6.784  -6.431  1.00  0.00     0.022 C 
HETATM   32  O2  UNL     1      19.403   8.305  -2.581  1.00  0.00    -0.271 OA
ENDBRANCH  20  21
ENDBRANCH  13  20
ENDBRANCH   4  11
BRANCH   9  33
HETATM   33  C25 UNL     1      13.746   9.640   6.611  1.00  0.00     0.075 C 
BRANCH  33  34
HETATM   34  C26 UNL     1      15.172   9.172   6.983  1.00  0.00     0.181 C 
HETATM   35  N5  UNL     1      15.105   8.238   8.117  1.00  0.00    -0.346 N 
HETATM   36  C27 UNL     1      16.251   7.967   8.936  1.00  0.00     0.241 C 
HETATM   37  H25 UNL     1      14.260   7.636   8.245  1.00  0.00     0.163 HD
HETATM   38  C28 UNL     1      17.504   8.779   8.753  1.00  0.00     0.179 C 
HETATM   39  O4  UNL     1      16.225   7.010   9.755  1.00  0.00    -0.271 OA
HETATM   40  N6  UNL     1      17.181  10.096   8.235  1.00  0.00    -0.337 N 
HETATM   41  C31 UNL     1      18.261   9.049  10.055  1.00  0.00     0.037 C 
HETATM   42  C29 UNL     1      17.910  11.161   8.899  1.00  0.00     0.127 C 
HETATM   43  C32 UNL     1      16.096  10.321   7.325  1.00  0.00     0.243 C 
HETATM   44  C30 UNL     1      18.826  10.460   9.897  1.00  0.00     0.022 C 
HETATM   45  O3  UNL     1      15.951  11.454   6.792  1.00  0.00    -0.271 OA
ENDBRANCH  33  34
ENDBRANCH   9  33
TORSDOF 5
ENDMDL
