REMARK  4 active torsions:
REMARK  status: ('A' for Active; 'I' for Inactive)
REMARK    1  A    between atoms: C2_3  and  C3_4 
REMARK    2  A    between atoms: C2_3  and  O4_24 
REMARK    3  A    between atoms: C3_4  and  C4_5 
REMARK    4  A    between atoms: C6_9  and  O2_11 
ROOT
HETATM    1  C4  UNL     1      -0.766  -1.176   0.919  1.00  0.00     0.190 C 
HETATM    2  C5  UNL     1      -0.594  -0.459   2.226  1.00  0.00     0.243 C 
HETATM    3  O1  UNL     1      -1.407   0.439   2.575  1.00  0.00    -0.271 OA
HETATM    4  N2  UNL     1       0.489  -0.807   3.086  1.00  0.00    -0.322 N 
HETATM    5  C6  UNL     1       1.440  -1.860   2.718  1.00  0.00     0.190 C 
HETATM    6  C7  UNL     1       2.015  -2.486   4.004  1.00  0.00     0.080 C 
HETATM    7  C8  UNL     1       0.740  -2.914   1.871  1.00  0.00     0.144 A 
HETATM    8  N3  UNL     1      -0.315  -2.584   1.046  1.00  0.00    -0.285 N 
HETATM    9  C9  UNL     1      -0.902  -3.557   0.268  1.00  0.00     0.262 A 
HETATM   10  O3  UNL     1      -1.861  -3.265  -0.502  1.00  0.00    -0.267 OA
HETATM   11  C10 UNL     1      -0.433  -4.881   0.312  1.00  0.00     0.059 A 
HETATM   12  C11 UNL     1       0.655  -5.173   1.150  1.00  0.00     0.049 A 
HETATM   13  C12 UNL     1       1.165  -6.475   1.216  1.00  0.00     0.030 A 
HETATM   14  C13 UNL     1       0.590  -7.492   0.448  1.00  0.00     0.002 A 
HETATM   15  C14 UNL     1      -0.493  -7.210  -0.388  1.00  0.00     0.001 A 
HETATM   16  C15 UNL     1      -1.006  -5.911  -0.461  1.00  0.00     0.019 A 
HETATM   17  N4  UNL     1       1.211  -4.190   1.893  1.00  0.00    -0.341 N 
HETATM   18  H4  UNL     1       2.009  -4.412   2.489  1.00  0.00     0.167 HD
HETATM   19  H5  UNL     1       0.654  -0.229   3.942  1.00  0.00     0.166 HD
ENDROOT
BRANCH   1  20
HETATM   20  C3  UNL     1      -0.001  -0.497  -0.250  1.00  0.00     0.082 C 
BRANCH  20  21
HETATM   21  C2  UNL     1      -0.417   0.966  -0.641  1.00  0.00     0.133 C 
HETATM   22  C1  UNL     1      -0.458   1.162  -2.209  1.00  0.00     0.347 A 
HETATM   23  N1  UNL     1       0.303   2.383  -2.492  1.00  0.00    -0.182 NA
HETATM   24  N5  UNL     1      -1.837   1.322  -2.745  1.00  0.00     0.124 N 
HETATM   25  C17 UNL     1       0.981   2.765  -1.314  1.00  0.00     0.029 A 
HETATM   26  C25 UNL     1      -0.521   3.260  -3.221  1.00  0.00     0.245 A 
HETATM   27  C16 UNL     1       0.637   1.976  -0.244  1.00  0.00     0.001 A 
HETATM   28  C18 UNL     1       1.884   3.823  -1.194  1.00  0.00     0.025 A 
HETATM   29  C21 UNL     1       1.182   2.230   1.021  1.00  0.00     0.012 A 
HETATM   30  C20 UNL     1       2.102   3.280   1.168  1.00  0.00     0.001 A 
HETATM   31  C19 UNL     1       2.453   4.075   0.062  1.00  0.00     0.002 A 
HETATM   32  C22 UNL     1      -1.832   2.639  -3.378  1.00  0.00     0.234 A 
HETATM   33  O5  UNL     1      -0.181   4.413  -3.601  1.00  0.00    -0.276 OA
HETATM   34  C23 UNL     1      -3.042   3.488  -3.038  1.00  0.00     0.054 A 
HETATM   35  C24 UNL     1      -2.835   2.969  -4.464  1.00  0.00     0.054 A 
HETATM   36  H19 UNL     1      -1.982   0.606  -3.494  1.00  0.00     0.319 HD
BRANCH  21  37
HETATM   37  O4  UNL     1      -1.636   1.356  -0.053  1.00  0.00    -0.381 OA
HETATM   38  H14 UNL     1      -2.344   0.747  -0.388  1.00  0.00     0.211 HD
ENDBRANCH  21  37
ENDBRANCH  20  21
ENDBRANCH   1  20
BRANCH   5  39
HETATM   39  O2  UNL     1       2.487  -1.311   1.959  1.00  0.00    -0.364 OA
HETATM   40  H9  UNL     1       2.854  -0.540   2.467  1.00  0.00     0.213 HD
ENDBRANCH   5  39
TORSDOF 4
