MODEL 1
REMARK VINA RESULT:     -10.7      0.000      0.000
REMARK  4 active torsions:
REMARK  status: ('A' for Active; 'I' for Inactive)
REMARK    1  A    between atoms: C2_3  and  C3_4 
REMARK    2  A    between atoms: C2_3  and  O4_24 
REMARK    3  A    between atoms: C3_4  and  C4_5 
REMARK    4  A    between atoms: C6_9  and  O2_11 
ROOT
HETATM    1  C4  UNL     1      19.205   8.157  -4.998  1.00  0.00     0.190 C 
HETATM    2  C5  UNL     1      20.120   7.718  -3.893  1.00  0.00     0.243 C 
HETATM    3  O1  UNL     1      20.210   6.499  -3.584  1.00  0.00    -0.271 OA
HETATM    4  N2  UNL     1      20.904   8.685  -3.198  1.00  0.00    -0.322 N 
HETATM    5  C6  UNL     1      20.837  10.107  -3.547  1.00  0.00     0.190 C 
HETATM    6  C7  UNL     1      22.180  10.773  -3.190  1.00  0.00     0.080 C 
HETATM    7  C8  UNL     1      20.536  10.260  -5.032  1.00  0.00     0.144 A 
HETATM    8  N3  UNL     1      19.787   9.322  -5.710  1.00  0.00    -0.285 N 
HETATM    9  C9  UNL     1      19.506   9.510  -7.045  1.00  0.00     0.262 A 
HETATM   10  O3  UNL     1      18.809   8.664  -7.676  1.00  0.00    -0.267 OA
HETATM   11  C10 UNL     1      19.979  10.650  -7.717  1.00  0.00     0.059 A 
HETATM   12  C11 UNL     1      20.722  11.592  -6.987  1.00  0.00     0.049 A 
HETATM   13  C12 UNL     1      21.201  12.749  -7.611  1.00  0.00     0.030 A 
HETATM   14  C13 UNL     1      20.944  12.972  -8.967  1.00  0.00     0.002 A 
HETATM   15  C14 UNL     1      20.206  12.040  -9.701  1.00  0.00     0.001 A 
HETATM   16  C15 UNL     1      19.721  10.882  -9.083  1.00  0.00     0.019 A 
HETATM   17  N4  UNL     1      20.971  11.377  -5.676  1.00  0.00    -0.341 N 
HETATM   18  H4  UNL     1      21.502  12.074  -5.152  1.00  0.00     0.167 HD
HETATM   19  H5  UNL     1      21.457   8.376  -2.365  1.00  0.00     0.166 HD
ENDROOT
BRANCH   1  20
HETATM   20  C3  UNL     1      17.781   8.524  -4.496  1.00  0.00     0.082 C 
BRANCH  20  21
HETATM   21  C2  UNL     1      16.770   7.349  -4.248  1.00  0.00     0.133 C 
HETATM   22  C1  UNL     1      17.185   6.477  -2.996  1.00  0.00     0.347 A 
HETATM   23  N1  UNL     1      17.141   5.078  -3.434  1.00  0.00    -0.182 NA
HETATM   24  N5  UNL     1      16.270   6.644  -1.835  1.00  0.00     0.124 N 
HETATM   25  C17 UNL     1      16.999   5.059  -4.839  1.00  0.00     0.029 A 
HETATM   26  C25 UNL     1      16.288   4.369  -2.568  1.00  0.00     0.245 A 
HETATM   27  C16 UNL     1      16.821   6.319  -5.355  1.00  0.00     0.001 A 
HETATM   28  C18 UNL     1      17.010   3.922  -5.649  1.00  0.00     0.025 A 
HETATM   29  C21 UNL     1      16.625   6.494  -6.731  1.00  0.00     0.012 A 
HETATM   30  C20 UNL     1      16.643   5.369  -7.570  1.00  0.00     0.001 A 
HETATM   31  C19 UNL     1      16.836   4.085  -7.030  1.00  0.00     0.002 A 
HETATM   32  C22 UNL     1      15.739   5.305  -1.593  1.00  0.00     0.234 A 
HETATM   33  O5  UNL     1      16.008   3.145  -2.682  1.00  0.00    -0.276 OA
HETATM   34  C23 UNL     1      14.238   5.269  -1.373  1.00  0.00     0.054 A 
HETATM   35  C24 UNL     1      15.197   4.932  -0.228  1.00  0.00     0.054 A 
HETATM   36  H19 UNL     1      16.843   6.918  -1.003  1.00  0.00     0.319 HD
BRANCH  21  37
HETATM   37  O4  UNL     1      15.440   7.796  -4.131  1.00  0.00    -0.381 OA
HETATM   38  H14 UNL     1      14.879   7.243  -4.734  1.00  0.00     0.211 HD
ENDBRANCH  21  37
ENDBRANCH  20  21
ENDBRANCH   1  20
BRANCH   5  39
HETATM   39  O2  UNL     1      19.804  10.725  -2.823  1.00  0.00    -0.364 OA
HETATM   40  H9  UNL     1      18.942  10.430  -3.219  1.00  0.00     0.213 HD
ENDBRANCH   5  39
TORSDOF 4
ENDMDL
MODEL 2
REMARK VINA RESULT:     -10.3     12.875     15.313
REMARK  4 active torsions:
REMARK  status: ('A' for Active; 'I' for Inactive)
REMARK    1  A    between atoms: C2_3  and  C3_4 
REMARK    2  A    between atoms: C2_3  and  O4_24 
REMARK    3  A    between atoms: C3_4  and  C4_5 
REMARK    4  A    between atoms: C6_9  and  O2_11 
ROOT
HETATM    1  C4  UNL     1      26.708  -1.624  -0.970  1.00  0.00     0.190 C 
HETATM    2  C5  UNL     1      26.815  -0.129  -1.040  1.00  0.00     0.243 C 
HETATM    3  O1  UNL     1      27.845   0.460  -0.613  1.00  0.00    -0.271 OA
HETATM    4  N2  UNL     1      25.750   0.630  -1.608  1.00  0.00    -0.322 N 
HETATM    5  C6  UNL     1      24.548  -0.026  -2.131  1.00  0.00     0.190 C 
HETATM    6  C7  UNL     1      23.939   0.855  -3.240  1.00  0.00     0.080 C 
HETATM    7  C8  UNL     1      24.906  -1.404  -2.672  1.00  0.00     0.144 A 
HETATM    8  N3  UNL     1      25.943  -2.137  -2.133  1.00  0.00    -0.285 N 
HETATM    9  C9  UNL     1      26.217  -3.394  -2.625  1.00  0.00     0.262 A 
HETATM   10  O3  UNL     1      27.156  -4.081  -2.131  1.00  0.00    -0.267 OA
HETATM   11  C10 UNL     1      25.448  -3.931  -3.671  1.00  0.00     0.059 A 
HETATM   12  C11 UNL     1      24.389  -3.161  -4.180  1.00  0.00     0.049 A 
HETATM   13  C12 UNL     1      23.588  -3.661  -5.213  1.00  0.00     0.030 A 
HETATM   14  C13 UNL     1      23.840  -4.929  -5.745  1.00  0.00     0.002 A 
HETATM   15  C14 UNL     1      24.892  -5.701  -5.245  1.00  0.00     0.001 A 
HETATM   16  C15 UNL     1      25.695  -5.209  -4.211  1.00  0.00     0.019 A 
HETATM   17  N4  UNL     1      24.145  -1.935  -3.667  1.00  0.00    -0.341 N 
HETATM   18  H4  UNL     1      23.365  -1.390  -4.037  1.00  0.00     0.167 HD
HETATM   19  H5  UNL     1      25.795   1.673  -1.556  1.00  0.00     0.166 HD
ENDROOT
BRANCH   1  20
HETATM   20  C3  UNL     1      26.042  -2.123   0.342  1.00  0.00     0.082 C 
BRANCH  20  21
HETATM   21  C2  UNL     1      26.818  -3.189   1.194  1.00  0.00     0.133 C 
HETATM   22  C1  UNL     1      25.977  -4.515   1.378  1.00  0.00     0.347 A 
HETATM   23  N1  UNL     1      26.010  -4.828   2.810  1.00  0.00    -0.182 NA
HETATM   24  N5  UNL     1      26.529  -5.671   0.622  1.00  0.00     0.124 N 
HETATM   25  C17 UNL     1      26.548  -3.717   3.495  1.00  0.00     0.029 A 
HETATM   26  C25 UNL     1      26.502  -6.137   2.967  1.00  0.00     0.245 A 
HETATM   27  C16 UNL     1      26.990  -2.745   2.630  1.00  0.00     0.001 A 
HETATM   28  C18 UNL     1      26.661  -3.582   4.880  1.00  0.00     0.025 A 
HETATM   29  C21 UNL     1      27.591  -1.582   3.127  1.00  0.00     0.012 A 
HETATM   30  C20 UNL     1      27.706  -1.415   4.516  1.00  0.00     0.001 A 
HETATM   31  C19 UNL     1      27.242  -2.414   5.391  1.00  0.00     0.002 A 
HETATM   32  C22 UNL     1      26.835  -6.666   1.648  1.00  0.00     0.234 A 
HETATM   33  O5  UNL     1      26.683  -6.707   4.077  1.00  0.00    -0.276 OA
HETATM   34  C23 UNL     1      28.197  -7.314   1.489  1.00  0.00     0.054 A 
HETATM   35  C24 UNL     1      26.920  -8.135   1.288  1.00  0.00     0.054 A 
HETATM   36  H19 UNL     1      25.770  -6.058   0.015  1.00  0.00     0.319 HD
BRANCH  21  37
HETATM   37  O4  UNL     1      28.095  -3.473   0.671  1.00  0.00    -0.381 OA
HETATM   38  H14 UNL     1      28.623  -2.633   0.686  1.00  0.00     0.211 HD
ENDBRANCH  21  37
ENDBRANCH  20  21
ENDBRANCH   1  20
BRANCH   5  39
HETATM   39  O2  UNL     1      23.608  -0.191  -1.099  1.00  0.00    -0.364 OA
HETATM   40  H9  UNL     1      23.225   0.703  -0.897  1.00  0.00     0.213 HD
ENDBRANCH   5  39
TORSDOF 4
ENDMDL
MODEL 3
REMARK VINA RESULT:     -10.1      1.839      3.916
REMARK  4 active torsions:
REMARK  status: ('A' for Active; 'I' for Inactive)
REMARK    1  A    between atoms: C2_3  and  C3_4 
REMARK    2  A    between atoms: C2_3  and  O4_24 
REMARK    3  A    between atoms: C3_4  and  C4_5 
REMARK    4  A    between atoms: C6_9  and  O2_11 
ROOT
HETATM    1  C4  UNL     1      17.359   8.163  -4.852  1.00  0.00     0.190 C 
HETATM    2  C5  UNL     1      16.347   8.921  -5.661  1.00  0.00     0.243 C 
HETATM    3  O1  UNL     1      15.141   8.964  -5.299  1.00  0.00    -0.271 OA
HETATM    4  N2  UNL     1      16.758   9.609  -6.840  1.00  0.00    -0.322 N 
HETATM    5  C6  UNL     1      18.157   9.595  -7.278  1.00  0.00     0.190 C 
HETATM    6  C7  UNL     1      18.444  10.881  -8.077  1.00  0.00     0.080 C 
HETATM    7  C8  UNL     1      19.075   9.495  -6.067  1.00  0.00     0.144 A 
HETATM    8  N3  UNL     1      18.678   8.840  -4.920  1.00  0.00    -0.285 N 
HETATM    9  C9  UNL     1      19.547   8.740  -3.857  1.00  0.00     0.262 A 
HETATM   10  O3  UNL     1      19.200   8.130  -2.805  1.00  0.00    -0.267 OA
HETATM   11  C10 UNL     1      20.833   9.302  -3.935  1.00  0.00     0.059 A 
HETATM   12  C11 UNL     1      21.206   9.945  -5.126  1.00  0.00     0.049 A 
HETATM   13  C12 UNL     1      22.481  10.508  -5.254  1.00  0.00     0.030 A 
HETATM   14  C13 UNL     1      23.389  10.435  -4.193  1.00  0.00     0.002 A 
HETATM   15  C14 UNL     1      23.025   9.798  -3.004  1.00  0.00     0.001 A 
HETATM   16  C15 UNL     1      21.754   9.230  -2.870  1.00  0.00     0.019 A 
HETATM   17  N4  UNL     1      20.328  10.016  -6.152  1.00  0.00    -0.341 N 
HETATM   18  H4  UNL     1      20.615  10.475  -7.017  1.00  0.00     0.167 HD
HETATM   19  H5  UNL     1      16.025  10.045  -7.446  1.00  0.00     0.166 HD
ENDROOT
BRANCH   1  20
HETATM   20  C3  UNL     1      17.517   6.687  -5.309  1.00  0.00     0.082 C 
BRANCH  20  21
HETATM   21  C2  UNL     1      17.085   5.562  -4.301  1.00  0.00     0.133 C 
HETATM   22  C1  UNL     1      16.825   6.143  -2.854  1.00  0.00     0.347 A 
HETATM   23  N1  UNL     1      17.567   5.285  -1.926  1.00  0.00    -0.182 NA
HETATM   24  N5  UNL     1      15.387   6.135  -2.469  1.00  0.00     0.124 N 
HETATM   25  C17 UNL     1      18.416   4.447  -2.680  1.00  0.00     0.029 A 
HETATM   26  C25 UNL     1      16.669   4.796  -0.959  1.00  0.00     0.245 A 
HETATM   27  C16 UNL     1      18.210   4.587  -4.030  1.00  0.00     0.001 A 
HETATM   28  C18 UNL     1      19.353   3.549  -2.163  1.00  0.00     0.025 A 
HETATM   29  C21 UNL     1      18.937   3.806  -4.938  1.00  0.00     0.012 A 
HETATM   30  C20 UNL     1      19.894   2.905  -4.447  1.00  0.00     0.001 A 
HETATM   31  C19 UNL     1      20.102   2.777  -3.061  1.00  0.00     0.002 A 
HETATM   32  C22 UNL     1      15.334   5.293  -1.276  1.00  0.00     0.234 A 
HETATM   33  O5  UNL     1      16.979   4.006  -0.028  1.00  0.00    -0.276 OA
HETATM   34  C23 UNL     1      14.206   4.278  -1.291  1.00  0.00     0.054 A 
HETATM   35  C24 UNL     1      14.194   5.437  -0.289  1.00  0.00     0.054 A 
HETATM   36  H19 UNL     1      15.119   7.107  -2.189  1.00  0.00     0.319 HD
BRANCH  21  37
HETATM   37  O4  UNL     1      15.974   4.827  -4.757  1.00  0.00    -0.381 OA
HETATM   38  H14 UNL     1      15.631   4.290  -3.996  1.00  0.00     0.211 HD
ENDBRANCH  21  37
ENDBRANCH  20  21
ENDBRANCH   1  20
BRANCH   5  39
HETATM   39  O2  UNL     1      18.387   8.477  -8.097  1.00  0.00    -0.364 OA
HETATM   40  H9  UNL     1      18.004   7.684  -7.637  1.00  0.00     0.213 HD
ENDBRANCH   5  39
TORSDOF 4
ENDMDL
MODEL 4
REMARK VINA RESULT:     -10.0     13.972     17.131
REMARK  4 active torsions:
REMARK  status: ('A' for Active; 'I' for Inactive)
REMARK    1  A    between atoms: C2_3  and  C3_4 
REMARK    2  A    between atoms: C2_3  and  O4_24 
REMARK    3  A    between atoms: C3_4  and  C4_5 
REMARK    4  A    between atoms: C6_9  and  O2_11 
ROOT
HETATM    1  C4  UNL     1      27.119  -3.419   0.604  1.00  0.00     0.190 C 
HETATM    2  C5  UNL     1      27.733  -2.818  -0.626  1.00  0.00     0.243 C 
HETATM    3  O1  UNL     1      28.616  -1.924  -0.529  1.00  0.00    -0.271 OA
HETATM    4  N2  UNL     1      27.325  -3.273  -1.915  1.00  0.00    -0.322 N 
HETATM    5  C6  UNL     1      26.315  -4.325  -2.062  1.00  0.00     0.190 C 
HETATM    6  C7  UNL     1      26.562  -5.074  -3.386  1.00  0.00     0.080 C 
HETATM    7  C8  UNL     1      26.391  -5.281  -0.879  1.00  0.00     0.144 A 
HETATM    8  N3  UNL     1      26.795  -4.848   0.366  1.00  0.00    -0.285 N 
HETATM    9  C9  UNL     1      26.819  -5.733   1.421  1.00  0.00     0.262 A 
HETATM   10  O3  UNL     1      27.175  -5.346   2.571  1.00  0.00    -0.267 OA
HETATM   11  C10 UNL     1      26.434  -7.072   1.234  1.00  0.00     0.059 A 
HETATM   12  C11 UNL     1      26.011  -7.469  -0.044  1.00  0.00     0.049 A 
HETATM   13  C12 UNL     1      25.605  -8.789  -0.274  1.00  0.00     0.030 A 
HETATM   14  C13 UNL     1      25.624  -9.719   0.770  1.00  0.00     0.002 A 
HETATM   15  C14 UNL     1      26.044  -9.332   2.044  1.00  0.00     0.001 A 
HETATM   16  C15 UNL     1      26.448  -8.014   2.282  1.00  0.00     0.019 A 
HETATM   17  N4  UNL     1      25.993  -6.570  -1.053  1.00  0.00    -0.341 N 
HETATM   18  H4  UNL     1      25.671  -6.868  -1.975  1.00  0.00     0.167 HD
HETATM   19  H5  UNL     1      27.686  -2.773  -2.760  1.00  0.00     0.166 HD
ENDROOT
BRANCH   1  20
HETATM   20  C3  UNL     1      25.837  -2.674   1.067  1.00  0.00     0.082 C 
BRANCH  20  21
HETATM   21  C2  UNL     1      25.970  -1.676   2.272  1.00  0.00     0.133 C 
HETATM   22  C1  UNL     1      27.419  -1.047   2.352  1.00  0.00     0.347 A 
HETATM   23  N1  UNL     1      27.859  -1.200   3.742  1.00  0.00    -0.182 NA
HETATM   24  N5  UNL     1      27.452   0.398   1.995  1.00  0.00     0.124 N 
HETATM   25  C17 UNL     1      26.952  -2.058   4.401  1.00  0.00     0.029 A 
HETATM   26  C25 UNL     1      28.212   0.069   4.238  1.00  0.00     0.245 A 
HETATM   27  C16 UNL     1      25.883  -2.386   3.605  1.00  0.00     0.001 A 
HETATM   28  C18 UNL     1      27.071  -2.527   5.711  1.00  0.00     0.025 A 
HETATM   29  C21 UNL     1      24.858  -3.201   4.103  1.00  0.00     0.012 A 
HETATM   30  C20 UNL     1      24.958  -3.697   5.413  1.00  0.00     0.001 A 
HETATM   31  C19 UNL     1      26.063  -3.361   6.215  1.00  0.00     0.002 A 
HETATM   32  C22 UNL     1      27.963   1.058   3.194  1.00  0.00     0.234 A 
HETATM   33  O5  UNL     1      28.607   0.294   5.413  1.00  0.00    -0.276 OA
HETATM   34  C23 UNL     1      27.183   2.297   3.592  1.00  0.00     0.054 A 
HETATM   35  C24 UNL     1      28.628   2.415   3.095  1.00  0.00     0.054 A 
HETATM   36  H19 UNL     1      28.155   0.530   1.232  1.00  0.00     0.319 HD
BRANCH  21  37
HETATM   37  O4  UNL     1      24.985  -0.669   2.250  1.00  0.00    -0.381 OA
HETATM   38  H14 UNL     1      24.319  -0.911   1.556  1.00  0.00     0.211 HD
ENDBRANCH  21  37
ENDBRANCH  20  21
ENDBRANCH   1  20
BRANCH   5  39
HETATM   39  O2  UNL     1      25.032  -3.753  -2.082  1.00  0.00    -0.364 OA
HETATM   40  H9  UNL     1      24.709  -3.706  -1.144  1.00  0.00     0.213 HD
ENDBRANCH   5  39
TORSDOF 4
ENDMDL
MODEL 5
REMARK VINA RESULT:      -9.8      2.347      4.359
REMARK  4 active torsions:
REMARK  status: ('A' for Active; 'I' for Inactive)
REMARK    1  A    between atoms: C2_3  and  C3_4 
REMARK    2  A    between atoms: C2_3  and  O4_24 
REMARK    3  A    between atoms: C3_4  and  C4_5 
REMARK    4  A    between atoms: C6_9  and  O2_11 
ROOT
HETATM    1  C4  UNL     1      18.554   7.305  -3.068  1.00  0.00     0.190 C 
HETATM    2  C5  UNL     1      19.978   7.328  -2.594  1.00  0.00     0.243 C 
HETATM    3  O1  UNL     1      20.488   6.312  -2.050  1.00  0.00    -0.271 OA
HETATM    4  N2  UNL     1      20.764   8.504  -2.775  1.00  0.00    -0.322 N 
HETATM    5  C6  UNL     1      20.206   9.696  -3.422  1.00  0.00     0.190 C 
HETATM    6  C7  UNL     1      21.350  10.483  -4.090  1.00  0.00     0.080 C 
HETATM    7  C8  UNL     1      19.163   9.283  -4.451  1.00  0.00     0.144 A 
HETATM    8  N3  UNL     1      18.408   8.140  -4.286  1.00  0.00    -0.285 N 
HETATM    9  C9  UNL     1      17.449   7.816  -5.219  1.00  0.00     0.262 A 
HETATM   10  O3  UNL     1      16.742   6.778  -5.073  1.00  0.00    -0.267 OA
HETATM   11  C10 UNL     1      17.238   8.641  -6.337  1.00  0.00     0.059 A 
HETATM   12  C11 UNL     1      18.013   9.805  -6.460  1.00  0.00     0.049 A 
HETATM   13  C12 UNL     1      17.828  10.664  -7.549  1.00  0.00     0.030 A 
HETATM   14  C13 UNL     1      16.870  10.364  -8.523  1.00  0.00     0.002 A 
HETATM   15  C14 UNL     1      16.095   9.208  -8.409  1.00  0.00     0.001 A 
HETATM   16  C15 UNL     1      16.272   8.346  -7.321  1.00  0.00     0.019 A 
HETATM   17  N4  UNL     1      18.939  10.095  -5.519  1.00  0.00    -0.341 N 
HETATM   18  H4  UNL     1      19.488  10.950  -5.613  1.00  0.00     0.167 HD
HETATM   19  H5  UNL     1      21.718   8.539  -2.348  1.00  0.00     0.166 HD
ENDROOT
BRANCH   1  20
HETATM   20  C3  UNL     1      17.548   7.791  -1.989  1.00  0.00     0.082 C 
BRANCH  20  21
HETATM   21  C2  UNL     1      16.825   6.700  -1.122  1.00  0.00     0.133 C 
HETATM   22  C1  UNL     1      15.712   5.941  -1.948  1.00  0.00     0.347 A 
HETATM   23  N1  UNL     1      14.503   5.953  -1.119  1.00  0.00    -0.182 NA
HETATM   24  N5  UNL     1      16.069   4.529  -2.255  1.00  0.00     0.124 N 
HETATM   25  C17 UNL     1      14.714   6.838  -0.040  1.00  0.00     0.029 A 
HETATM   26  C25 UNL     1      14.069   4.625  -0.948  1.00  0.00     0.245 A 
HETATM   27  C16 UNL     1      16.001   7.317  -0.013  1.00  0.00     0.001 A 
HETATM   28  C18 UNL     1      13.770   7.198   0.923  1.00  0.00     0.025 A 
HETATM   29  C21 UNL     1      16.409   8.181   1.011  1.00  0.00     0.012 A 
HETATM   30  C20 UNL     1      15.476   8.570   1.985  1.00  0.00     0.001 A 
HETATM   31  C19 UNL     1      14.158   8.080   1.941  1.00  0.00     0.002 A 
HETATM   32  C22 UNL     1      15.013   3.740  -1.622  1.00  0.00     0.234 A 
HETATM   33  O5  UNL     1      13.069   4.281  -0.262  1.00  0.00    -0.276 OA
HETATM   34  C23 UNL     1      15.525   2.550  -0.834  1.00  0.00     0.054 A 
HETATM   35  C24 UNL     1      14.707   2.340  -2.112  1.00  0.00     0.054 A 
HETATM   36  H19 UNL     1      15.997   4.390  -3.289  1.00  0.00     0.319 HD
BRANCH  21  37
HETATM   37  O4  UNL     1      17.727   5.789  -0.538  1.00  0.00    -0.381 OA
HETATM   38  H14 UNL     1      18.622   6.218  -0.517  1.00  0.00     0.211 HD
ENDBRANCH  21  37
ENDBRANCH  20  21
ENDBRANCH   1  20
BRANCH   5  39
HETATM   39  O2  UNL     1      19.579  10.508  -2.463  1.00  0.00    -0.364 OA
HETATM   40  H9  UNL     1      19.895  10.214  -1.568  1.00  0.00     0.213 HD
ENDBRANCH   5  39
TORSDOF 4
ENDMDL
MODEL 6
REMARK VINA RESULT:      -9.8     14.851     18.199
REMARK  4 active torsions:
REMARK  status: ('A' for Active; 'I' for Inactive)
REMARK    1  A    between atoms: C2_3  and  C3_4 
REMARK    2  A    between atoms: C2_3  and  O4_24 
REMARK    3  A    between atoms: C3_4  and  C4_5 
REMARK    4  A    between atoms: C6_9  and  O2_11 
ROOT
HETATM    1  C4  UNL     1      26.783  -3.666   2.509  1.00  0.00     0.190 C 
HETATM    2  C5  UNL     1      26.972  -3.367   1.050  1.00  0.00     0.243 C 
HETATM    3  O1  UNL     1      27.555  -2.311   0.684  1.00  0.00    -0.271 OA
HETATM    4  N2  UNL     1      26.499  -4.291   0.072  1.00  0.00    -0.322 N 
HETATM    5  C6  UNL     1      25.834  -5.536   0.466  1.00  0.00     0.190 C 
HETATM    6  C7  UNL     1      26.057  -6.592  -0.634  1.00  0.00     0.080 C 
HETATM    7  C8  UNL     1      26.390  -6.019   1.799  1.00  0.00     0.144 A 
HETATM    8  N3  UNL     1      26.858  -5.129   2.743  1.00  0.00    -0.285 N 
HETATM    9  C9  UNL     1      27.323  -5.600   3.952  1.00  0.00     0.262 A 
HETATM   10  O3  UNL     1      27.742  -4.794   4.831  1.00  0.00    -0.267 OA
HETATM   11  C10 UNL     1      27.323  -6.978   4.225  1.00  0.00     0.059 A 
HETATM   12  C11 UNL     1      26.821  -7.850   3.245  1.00  0.00     0.049 A 
HETATM   13  C12 UNL     1      26.789  -9.230   3.479  1.00  0.00     0.030 A 
HETATM   14  C13 UNL     1      27.260  -9.746   4.690  1.00  0.00     0.002 A 
HETATM   15  C14 UNL     1      27.761  -8.886   5.669  1.00  0.00     0.001 A 
HETATM   16  C15 UNL     1      27.794  -7.506   5.444  1.00  0.00     0.019 A 
HETATM   17  N4  UNL     1      26.366  -7.351   2.074  1.00  0.00    -0.341 N 
HETATM   18  H4  UNL     1      25.992  -7.993   1.375  1.00  0.00     0.167 HD
HETATM   19  H5  UNL     1      26.546  -4.019  -0.937  1.00  0.00     0.166 HD
ENDROOT
BRANCH   1  20
HETATM   20  C3  UNL     1      25.439  -3.126   3.070  1.00  0.00     0.082 C 
BRANCH  20  21
HETATM   21  C2  UNL     1      25.499  -1.904   4.054  1.00  0.00     0.133 C 
HETATM   22  C1  UNL     1      26.874  -1.131   3.943  1.00  0.00     0.347 A 
HETATM   23  N1  UNL     1      27.366  -0.967   5.315  1.00  0.00    -0.182 NA
HETATM   24  N5  UNL     1      26.744   0.212   3.317  1.00  0.00     0.124 N 
HETATM   25  C17 UNL     1      26.575  -1.766   6.168  1.00  0.00     0.029 A 
HETATM   26  C25 UNL     1      27.596   0.402   5.542  1.00  0.00     0.245 A 
HETATM   27  C16 UNL     1      25.524  -2.347   5.501  1.00  0.00     0.001 A 
HETATM   28  C18 UNL     1      26.779  -1.957   7.536  1.00  0.00     0.025 A 
HETATM   29  C21 UNL     1      24.606  -3.146   6.194  1.00  0.00     0.012 A 
HETATM   30  C20 UNL     1      24.795  -3.365   7.567  1.00  0.00     0.001 A 
HETATM   31  C19 UNL     1      25.880  -2.772   8.237  1.00  0.00     0.002 A 
HETATM   32  C22 UNL     1      27.215   1.140   4.342  1.00  0.00     0.234 A 
HETATM   33  O5  UNL     1      27.998   0.890   6.633  1.00  0.00    -0.276 OA
HETATM   34  C23 UNL     1      26.320   2.350   4.533  1.00  0.00     0.054 A 
HETATM   35  C24 UNL     1      27.729   2.511   3.955  1.00  0.00     0.054 A 
HETATM   36  H19 UNL     1      27.407   0.262   2.509  1.00  0.00     0.319 HD
BRANCH  21  37
HETATM   37  O4  UNL     1      24.413  -1.023   3.888  1.00  0.00    -0.381 OA
HETATM   38  H14 UNL     1      24.373  -0.435   4.686  1.00  0.00     0.211 HD
ENDBRANCH  21  37
ENDBRANCH  20  21
ENDBRANCH   1  20
BRANCH   5  39
HETATM   39  O2  UNL     1      24.456  -5.310   0.622  1.00  0.00    -0.364 OA
HETATM   40  H9  UNL     1      24.010  -5.578  -0.225  1.00  0.00     0.213 HD
ENDBRANCH   5  39
TORSDOF 4
ENDMDL
MODEL 7
REMARK VINA RESULT:      -9.7      2.843      6.456
REMARK  4 active torsions:
REMARK  status: ('A' for Active; 'I' for Inactive)
REMARK    1  A    between atoms: C2_3  and  C3_4 
REMARK    2  A    between atoms: C2_3  and  O4_24 
REMARK    3  A    between atoms: C3_4  and  C4_5 
REMARK    4  A    between atoms: C6_9  and  O2_11 
ROOT
HETATM    1  C4  UNL     1      18.384   8.390  -6.699  1.00  0.00     0.190 C 
HETATM    2  C5  UNL     1      18.416   9.855  -7.025  1.00  0.00     0.243 C 
HETATM    3  O1  UNL     1      19.473  10.523  -6.868  1.00  0.00    -0.271 OA
HETATM    4  N2  UNL     1      17.244  10.491  -7.530  1.00  0.00    -0.322 N 
HETATM    5  C6  UNL     1      16.004   9.738  -7.742  1.00  0.00     0.190 C 
HETATM    6  C7  UNL     1      15.195  10.414  -8.867  1.00  0.00     0.080 C 
HETATM    7  C8  UNL     1      16.333   8.296  -8.104  1.00  0.00     0.144 A 
HETATM    8  N3  UNL     1      17.470   7.680  -7.627  1.00  0.00    -0.285 N 
HETATM    9  C9  UNL     1      17.718   6.363  -7.947  1.00  0.00     0.262 A 
HETATM   10  O3  UNL     1      18.750   5.783  -7.505  1.00  0.00    -0.267 OA
HETATM   11  C10 UNL     1      16.819   5.648  -8.757  1.00  0.00     0.059 A 
HETATM   12  C11 UNL     1      15.663   6.305  -9.208  1.00  0.00     0.049 A 
HETATM   13  C12 UNL     1      14.733   5.629 -10.005  1.00  0.00     0.030 A 
HETATM   14  C13 UNL     1      14.953   4.294 -10.359  1.00  0.00     0.002 A 
HETATM   15  C14 UNL     1      16.101   3.633  -9.916  1.00  0.00     0.001 A 
HETATM   16  C15 UNL     1      17.033   4.302  -9.116  1.00  0.00     0.019 A 
HETATM   17  N4  UNL     1      15.450   7.596  -8.866  1.00  0.00    -0.341 N 
HETATM   18  H4  UNL     1      14.600   8.059  -9.190  1.00  0.00     0.167 HD
HETATM   19  H5  UNL     1      17.253  11.530  -7.654  1.00  0.00     0.166 HD
ENDROOT
BRANCH   1  20
HETATM   20  C3  UNL     1      17.951   8.105  -5.235  1.00  0.00     0.082 C 
BRANCH  20  21
HETATM   21  C2  UNL     1      19.020   8.313  -4.104  1.00  0.00     0.133 C 
HETATM   22  C1  UNL     1      20.487   8.056  -4.633  1.00  0.00     0.347 A 
HETATM   23  N1  UNL     1      21.121   7.151  -3.670  1.00  0.00    -0.182 NA
HETATM   24  N5  UNL     1      21.302   9.298  -4.732  1.00  0.00     0.124 N 
HETATM   25  C17 UNL     1      20.123   6.663  -2.798  1.00  0.00     0.029 A 
HETATM   26  C25 UNL     1      22.310   7.751  -3.214  1.00  0.00     0.245 A 
HETATM   27  C16 UNL     1      18.908   7.260  -3.023  1.00  0.00     0.001 A 
HETATM   28  C18 UNL     1      20.305   5.705  -1.799  1.00  0.00     0.025 A 
HETATM   29  C21 UNL     1      17.804   6.929  -2.227  1.00  0.00     0.012 A 
HETATM   30  C20 UNL     1      17.954   5.960  -1.222  1.00  0.00     0.001 A 
HETATM   31  C19 UNL     1      19.203   5.349  -1.009  1.00  0.00     0.002 A 
HETATM   32  C22 UNL     1      22.435   9.063  -3.840  1.00  0.00     0.234 A 
HETATM   33  O5  UNL     1      23.083   7.247  -2.355  1.00  0.00    -0.276 OA
HETATM   34  C23 UNL     1      22.752  10.233  -2.930  1.00  0.00     0.054 A 
HETATM   35  C24 UNL     1      23.731   9.823  -4.034  1.00  0.00     0.054 A 
HETATM   36  H19 UNL     1      21.671   9.370  -5.709  1.00  0.00     0.319 HD
BRANCH  21  37
HETATM   37  O4  UNL     1      18.920   9.577  -3.492  1.00  0.00    -0.381 OA
HETATM   38  H14 UNL     1      19.823   9.988  -3.493  1.00  0.00     0.211 HD
ENDBRANCH  21  37
ENDBRANCH  20  21
ENDBRANCH   1  20
BRANCH   5  39
HETATM   39  O2  UNL     1      15.244   9.732  -6.561  1.00  0.00    -0.364 OA
HETATM   40  H9  UNL     1      14.497  10.376  -6.681  1.00  0.00     0.213 HD
ENDBRANCH   5  39
TORSDOF 4
ENDMDL
MODEL 8
REMARK VINA RESULT:      -9.7      2.069      3.730
REMARK  4 active torsions:
REMARK  status: ('A' for Active; 'I' for Inactive)
REMARK    1  A    between atoms: C2_3  and  C3_4 
REMARK    2  A    between atoms: C2_3  and  O4_24 
REMARK    3  A    between atoms: C3_4  and  C4_5 
REMARK    4  A    between atoms: C6_9  and  O2_11 
ROOT
HETATM    1  C4  UNL     1      21.269   7.543  -4.000  1.00  0.00     0.190 C 
HETATM    2  C5  UNL     1      22.017   7.826  -2.730  1.00  0.00     0.243 C 
HETATM    3  O1  UNL     1      22.665   6.911  -2.152  1.00  0.00    -0.271 OA
HETATM    4  N2  UNL     1      22.007   9.142  -2.181  1.00  0.00    -0.322 N 
HETATM    5  C6  UNL     1      21.280  10.231  -2.839  1.00  0.00     0.190 C 
HETATM    6  C7  UNL     1      21.960  11.569  -2.489  1.00  0.00     0.080 C 
HETATM    7  C8  UNL     1      21.269  10.008  -4.345  1.00  0.00     0.144 A 
HETATM    8  N3  UNL     1      21.290   8.737  -4.880  1.00  0.00    -0.285 N 
HETATM    9  C9  UNL     1      21.245   8.573  -6.247  1.00  0.00     0.262 A 
HETATM   10  O3  UNL     1      21.250   7.413  -6.750  1.00  0.00    -0.267 OA
HETATM   11  C10 UNL     1      21.180   9.691  -7.096  1.00  0.00     0.059 A 
HETATM   12  C11 UNL     1      21.141  10.967  -6.512  1.00  0.00     0.049 A 
HETATM   13  C12 UNL     1      21.062  12.110  -7.317  1.00  0.00     0.030 A 
HETATM   14  C13 UNL     1      21.024  11.984  -8.709  1.00  0.00     0.002 A 
HETATM   15  C14 UNL     1      21.062  10.718  -9.298  1.00  0.00     0.001 A 
HETATM   16  C15 UNL     1      21.139   9.572  -8.500  1.00  0.00     0.019 A 
HETATM   17  N4  UNL     1      21.179  11.089  -5.166  1.00  0.00    -0.341 N 
HETATM   18  H4  UNL     1      21.138  12.022  -4.753  1.00  0.00     0.167 HD
HETATM   19  H5  UNL     1      22.446   9.297  -1.244  1.00  0.00     0.166 HD
ENDROOT
BRANCH   1  20
HETATM   20  C3  UNL     1      19.796   7.115  -3.753  1.00  0.00     0.082 C 
BRANCH  20  21
HETATM   21  C2  UNL     1      19.415   5.619  -4.036  1.00  0.00     0.133 C 
HETATM   22  C1  UNL     1      18.718   5.450  -5.445  1.00  0.00     0.347 A 
HETATM   23  N1  UNL     1      17.505   4.660  -5.214  1.00  0.00    -0.182 NA
HETATM   24  N5  UNL     1      19.569   4.742  -6.440  1.00  0.00     0.124 N 
HETATM   25  C17 UNL     1      17.293   4.573  -3.820  1.00  0.00     0.029 A 
HETATM   26  C25 UNL     1      17.543   3.533  -6.055  1.00  0.00     0.245 A 
HETATM   27  C16 UNL     1      18.326   5.130  -3.107  1.00  0.00     0.001 A 
HETATM   28  C18 UNL     1      16.194   3.982  -3.194  1.00  0.00     0.025 A 
HETATM   29  C21 UNL     1      18.308   5.102  -1.707  1.00  0.00     0.012 A 
HETATM   30  C20 UNL     1      17.210   4.526  -1.050  1.00  0.00     0.001 A 
HETATM   31  C19 UNL     1      16.154   3.967  -1.793  1.00  0.00     0.002 A 
HETATM   32  C22 UNL     1      18.795   3.557  -6.804  1.00  0.00     0.234 A 
HETATM   33  O5  UNL     1      16.663   2.631  -6.085  1.00  0.00    -0.276 OA
HETATM   34  C23 UNL     1      19.609   2.277  -6.828  1.00  0.00     0.054 A 
HETATM   35  C24 UNL     1      19.041   2.860  -8.126  1.00  0.00     0.054 A 
HETATM   36  H19 UNL     1      19.649   5.347  -7.291  1.00  0.00     0.319 HD
BRANCH  21  37
HETATM   37  O4  UNL     1      20.515   4.748  -3.912  1.00  0.00    -0.381 OA
HETATM   38  H14 UNL     1      21.050   4.813  -4.746  1.00  0.00     0.211 HD
ENDBRANCH  21  37
ENDBRANCH  20  21
ENDBRANCH   1  20
BRANCH   5  39
HETATM   39  O2  UNL     1      19.949  10.254  -2.389  1.00  0.00    -0.364 OA
HETATM   40  H9  UNL     1      19.361  10.263  -3.190  1.00  0.00     0.213 HD
ENDBRANCH   5  39
TORSDOF 4
ENDMDL
MODEL 9
REMARK VINA RESULT:      -9.7      2.760      5.697
REMARK  4 active torsions:
REMARK  status: ('A' for Active; 'I' for Inactive)
REMARK    1  A    between atoms: C2_3  and  C3_4 
REMARK    2  A    between atoms: C2_3  and  O4_24 
REMARK    3  A    between atoms: C3_4  and  C4_5 
REMARK    4  A    between atoms: C6_9  and  O2_11 
ROOT
HETATM    1  C4  UNL     1      17.596   8.981  -6.543  1.00  0.00     0.190 C 
HETATM    2  C5  UNL     1      16.145   8.651  -6.736  1.00  0.00     0.243 C 
HETATM    3  O1  UNL     1      15.296   8.958  -5.856  1.00  0.00    -0.271 OA
HETATM    4  N2  UNL     1      15.721   7.998  -7.931  1.00  0.00    -0.322 N 
HETATM    5  C6  UNL     1      16.681   7.645  -8.982  1.00  0.00     0.190 C 
HETATM    6  C7  UNL     1      15.949   7.622 -10.339  1.00  0.00     0.080 C 
HETATM    7  C8  UNL     1      17.820   8.655  -9.000  1.00  0.00     0.144 A 
HETATM    8  N3  UNL     1      18.226   9.297  -7.849  1.00  0.00    -0.285 N 
HETATM    9  C9  UNL     1      19.283  10.178  -7.896  1.00  0.00     0.262 A 
HETATM   10  O3  UNL     1      19.673  10.763  -6.846  1.00  0.00    -0.267 OA
HETATM   11  C10 UNL     1      19.947  10.427  -9.110  1.00  0.00     0.059 A 
HETATM   12  C11 UNL     1      19.516   9.740 -10.256  1.00  0.00     0.049 A 
HETATM   13  C12 UNL     1      20.156   9.945 -11.484  1.00  0.00     0.030 A 
HETATM   14  C13 UNL     1      21.227  10.839 -11.574  1.00  0.00     0.002 A 
HETATM   15  C14 UNL     1      21.662  11.527 -10.439  1.00  0.00     0.001 A 
HETATM   16  C15 UNL     1      21.029  11.325  -9.208  1.00  0.00     0.019 A 
HETATM   17  N4  UNL     1      18.480   8.876 -10.169  1.00  0.00    -0.341 N 
HETATM   18  H4  UNL     1      18.184   8.373 -11.006  1.00  0.00     0.167 HD
HETATM   19  H5  UNL     1      14.727   7.684  -8.004  1.00  0.00     0.166 HD
ENDROOT
BRANCH   1  20
HETATM   20  C3  UNL     1      18.391   7.838  -5.854  1.00  0.00     0.082 C 
BRANCH  20  21
HETATM   21  C2  UNL     1      19.290   8.214  -4.623  1.00  0.00     0.133 C 
HETATM   22  C1  UNL     1      20.829   8.087  -4.963  1.00  0.00     0.347 A 
HETATM   23  N1  UNL     1      21.428   7.304  -3.877  1.00  0.00    -0.182 NA
HETATM   24  N5  UNL     1      21.522   9.401  -5.044  1.00  0.00     0.124 N 
HETATM   25  C17 UNL     1      20.385   6.757  -3.098  1.00  0.00     0.029 A 
HETATM   26  C25 UNL     1      22.487   8.048  -3.326  1.00  0.00     0.245 A 
HETATM   27  C16 UNL     1      19.152   7.212  -3.498  1.00  0.00     0.001 A 
HETATM   28  C18 UNL     1      20.537   5.876  -2.026  1.00  0.00     0.025 A 
HETATM   29  C21 UNL     1      17.998   6.806  -2.816  1.00  0.00     0.012 A 
HETATM   30  C20 UNL     1      18.121   5.911  -1.742  1.00  0.00     0.001 A 
HETATM   31  C19 UNL     1      19.388   5.446  -1.348  1.00  0.00     0.002 A 
HETATM   32  C22 UNL     1      22.557   9.332  -4.015  1.00  0.00     0.234 A 
HETATM   33  O5  UNL     1      23.196   7.673  -2.353  1.00  0.00    -0.276 OA
HETATM   34  C23 UNL     1      22.644  10.575  -3.149  1.00  0.00     0.054 A 
HETATM   35  C24 UNL     1      23.785  10.214  -4.105  1.00  0.00     0.054 A 
HETATM   36  H19 UNL     1      21.998   9.463  -5.974  1.00  0.00     0.319 HD
BRANCH  21  37
HETATM   37  O4  UNL     1      18.992   9.490  -4.107  1.00  0.00    -0.381 OA
HETATM   38  H14 UNL     1      18.014   9.631  -4.190  1.00  0.00     0.211 HD
ENDBRANCH  21  37
ENDBRANCH  20  21
ENDBRANCH   1  20
BRANCH   5  39
HETATM   39  O2  UNL     1      17.223   6.375  -8.723  1.00  0.00    -0.364 OA
HETATM   40  H9  UNL     1      17.427   6.328  -7.752  1.00  0.00     0.213 HD
ENDBRANCH   5  39
TORSDOF 4
ENDMDL
MODEL 10
REMARK VINA RESULT:      -9.7      2.000      4.244
REMARK  4 active torsions:
REMARK  status: ('A' for Active; 'I' for Inactive)
REMARK    1  A    between atoms: C2_3  and  C3_4 
REMARK    2  A    between atoms: C2_3  and  O4_24 
REMARK    3  A    between atoms: C3_4  and  C4_5 
REMARK    4  A    between atoms: C6_9  and  O2_11 
ROOT
HETATM    1  C4  UNL     1      17.783   9.725  -7.034  1.00  0.00     0.190 C 
HETATM    2  C5  UNL     1      17.478  10.847  -7.982  1.00  0.00     0.243 C 
HETATM    3  O1  UNL     1      16.285  11.182  -8.215  1.00  0.00    -0.271 OA
HETATM    4  N2  UNL     1      18.546  11.549  -8.614  1.00  0.00    -0.322 N 
HETATM    5  C6  UNL     1      19.944  11.196  -8.350  1.00  0.00     0.190 C 
HETATM    6  C7  UNL     1      20.823  12.445  -8.557  1.00  0.00     0.080 C 
HETATM    7  C8  UNL     1      20.084  10.667  -6.929  1.00  0.00     0.144 A 
HETATM    8  N3  UNL     1      19.049   9.998  -6.310  1.00  0.00    -0.285 N 
HETATM    9  C9  UNL     1      19.222   9.503  -5.036  1.00  0.00     0.262 A 
HETATM   10  O3  UNL     1      18.286   8.876  -4.463  1.00  0.00    -0.267 OA
HETATM   11  C10 UNL     1      20.444   9.679  -4.366  1.00  0.00     0.059 A 
HETATM   12  C11 UNL     1      21.480  10.350  -5.037  1.00  0.00     0.049 A 
HETATM   13  C12 UNL     1      22.719  10.536  -4.414  1.00  0.00     0.030 A 
HETATM   14  C13 UNL     1      22.931  10.057  -3.118  1.00  0.00     0.002 A 
HETATM   15  C14 UNL     1      21.906   9.389  -2.443  1.00  0.00     0.001 A 
HETATM   16  C15 UNL     1      20.666   9.197  -3.060  1.00  0.00     0.019 A 
HETATM   17  N4  UNL     1      21.276  10.814  -6.290  1.00  0.00    -0.341 N 
HETATM   18  H4  UNL     1      22.039  11.289  -6.772  1.00  0.00     0.167 HD
HETATM   19  H5  UNL     1      18.315  12.257  -9.348  1.00  0.00     0.166 HD
ENDROOT
BRANCH   1  20
HETATM   20  C3  UNL     1      17.884   8.345  -7.741  1.00  0.00     0.082 C 
BRANCH  20  21
HETATM   21  C2  UNL     1      17.048   7.157  -7.144  1.00  0.00     0.133 C 
HETATM   22  C1  UNL     1      17.974   6.092  -6.432  1.00  0.00     0.347 A 
HETATM   23  N1  UNL     1      17.572   4.782  -6.954  1.00  0.00    -0.182 NA
HETATM   24  N5  UNL     1      17.827   6.082  -4.951  1.00  0.00     0.124 N 
HETATM   25  C17 UNL     1      16.712   4.989  -8.054  1.00  0.00     0.029 A 
HETATM   26  C25 UNL     1      17.239   3.954  -5.866  1.00  0.00     0.245 A 
HETATM   27  C16 UNL     1      16.411   6.317  -8.228  1.00  0.00     0.001 A 
HETATM   28  C18 UNL     1      16.187   3.995  -8.883  1.00  0.00     0.025 A 
HETATM   29  C21 UNL     1      15.538   6.712  -9.251  1.00  0.00     0.012 A 
HETATM   30  C20 UNL     1      15.005   5.735 -10.106  1.00  0.00     0.001 A 
HETATM   31  C19 UNL     1      15.329   4.379  -9.923  1.00  0.00     0.002 A 
HETATM   32  C22 UNL     1      17.377   4.728  -4.637  1.00  0.00     0.234 A 
HETATM   33  O5  UNL     1      16.825   2.767  -5.969  1.00  0.00    -0.276 OA
HETATM   34  C23 UNL     1      16.221   4.677  -3.657  1.00  0.00     0.054 A 
HETATM   35  C24 UNL     1      17.602   4.149  -3.255  1.00  0.00     0.054 A 
HETATM   36  H19 UNL     1      18.774   6.213  -4.527  1.00  0.00     0.319 HD
BRANCH  21  37
HETATM   37  O4  UNL     1      16.028   7.596  -6.278  1.00  0.00    -0.381 OA
HETATM   38  H14 UNL     1      15.510   8.298  -6.750  1.00  0.00     0.211 HD
ENDBRANCH  21  37
ENDBRANCH  20  21
ENDBRANCH   1  20
BRANCH   5  39
HETATM   39  O2  UNL     1      20.355  10.186  -9.236  1.00  0.00    -0.364 OA
HETATM   40  H9  UNL     1      21.308   9.982  -9.039  1.00  0.00     0.213 HD
ENDBRANCH   5  39
TORSDOF 4
ENDMDL
MODEL 11
REMARK VINA RESULT:      -9.7     11.922     14.876
REMARK  4 active torsions:
REMARK  status: ('A' for Active; 'I' for Inactive)
REMARK    1  A    between atoms: C2_3  and  C3_4 
REMARK    2  A    between atoms: C2_3  and  O4_24 
REMARK    3  A    between atoms: C3_4  and  C4_5 
REMARK    4  A    between atoms: C6_9  and  O2_11 
ROOT
HETATM    1  C4  UNL     1      26.461  -3.942  -1.771  1.00  0.00     0.190 C 
HETATM    2  C5  UNL     1      26.505  -5.415  -2.052  1.00  0.00     0.243 C 
HETATM    3  O1  UNL     1      27.021  -5.848  -3.118  1.00  0.00    -0.271 OA
HETATM    4  N2  UNL     1      25.972  -6.333  -1.099  1.00  0.00    -0.322 N 
HETATM    5  C6  UNL     1      25.383  -5.862   0.158  1.00  0.00     0.190 C 
HETATM    6  C7  UNL     1      25.536  -6.964   1.225  1.00  0.00     0.080 C 
HETATM    7  C8  UNL     1      26.074  -4.580   0.603  1.00  0.00     0.144 A 
HETATM    8  N3  UNL     1      26.601  -3.695  -0.315  1.00  0.00    -0.285 N 
HETATM    9  C9  UNL     1      27.188  -2.529   0.123  1.00  0.00     0.262 A 
HETATM   10  O3  UNL     1      27.663  -1.703  -0.709  1.00  0.00    -0.267 OA
HETATM   11  C10 UNL     1      27.254  -2.238   1.496  1.00  0.00     0.059 A 
HETATM   12  C11 UNL     1      26.690  -3.155   2.397  1.00  0.00     0.049 A 
HETATM   13  C12 UNL     1      26.721  -2.901   3.774  1.00  0.00     0.030 A 
HETATM   14  C13 UNL     1      27.316  -1.732   4.257  1.00  0.00     0.002 A 
HETATM   15  C14 UNL     1      27.880  -0.815   3.367  1.00  0.00     0.001 A 
HETATM   16  C15 UNL     1      27.851  -1.061   1.990  1.00  0.00     0.019 A 
HETATM   17  N4  UNL     1      26.115  -4.286   1.930  1.00  0.00    -0.341 N 
HETATM   18  H4  UNL     1      25.697  -4.939   2.594  1.00  0.00     0.167 HD
HETATM   19  H5  UNL     1      25.918  -7.345  -1.356  1.00  0.00     0.166 HD
ENDROOT
BRANCH   1  20
HETATM   20  C3  UNL     1      25.159  -3.266  -2.282  1.00  0.00     0.082 C 
BRANCH  20  21
HETATM   21  C2  UNL     1      25.119  -2.802  -3.782  1.00  0.00     0.133 C 
HETATM   22  C1  UNL     1      24.700  -1.283  -3.912  1.00  0.00     0.347 A 
HETATM   23  N1  UNL     1      23.638  -1.233  -4.922  1.00  0.00    -0.182 NA
HETATM   24  N5  UNL     1      25.817  -0.401  -4.348  1.00  0.00     0.124 N 
HETATM   25  C17 UNL     1      23.227  -2.555  -5.198  1.00  0.00     0.029 A 
HETATM   26  C25 UNL     1      24.023  -0.325  -5.926  1.00  0.00     0.245 A 
HETATM   27  C16 UNL     1      24.008  -3.482  -4.552  1.00  0.00     0.001 A 
HETATM   28  C18 UNL     1      22.174  -2.929  -6.035  1.00  0.00     0.025 A 
HETATM   29  C21 UNL     1      23.773  -4.850  -4.736  1.00  0.00     0.012 A 
HETATM   30  C20 UNL     1      22.714  -5.255  -5.563  1.00  0.00     0.001 A 
HETATM   31  C19 UNL     1      21.915  -4.295  -6.212  1.00  0.00     0.002 A 
HETATM   32  C22 UNL     1      25.351   0.186  -5.602  1.00  0.00     0.234 A 
HETATM   33  O5  UNL     1      23.346  -0.068  -6.958  1.00  0.00    -0.276 OA
HETATM   34  C23 UNL     1      26.386   0.167  -6.711  1.00  0.00     0.054 A 
HETATM   35  C24 UNL     1      25.932   1.495  -6.096  1.00  0.00     0.054 A 
HETATM   36  H19 UNL     1      25.916   0.371  -3.649  1.00  0.00     0.319 HD
BRANCH  21  37
HETATM   37  O4  UNL     1      26.330  -3.050  -4.457  1.00  0.00    -0.381 OA
HETATM   38  H14 UNL     1      26.146  -3.698  -5.185  1.00  0.00     0.211 HD
ENDBRANCH  21  37
ENDBRANCH  20  21
ENDBRANCH   1  20
BRANCH   5  39
HETATM   39  O2  UNL     1      24.019  -5.583  -0.032  1.00  0.00    -0.364 OA
HETATM   40  H9  UNL     1      23.530  -6.447  -0.005  1.00  0.00     0.213 HD
ENDBRANCH   5  39
TORSDOF 4
ENDMDL
MODEL 12
REMARK VINA RESULT:      -9.6     11.112     13.738
REMARK  4 active torsions:
REMARK  status: ('A' for Active; 'I' for Inactive)
REMARK    1  A    between atoms: C2_3  and  C3_4 
REMARK    2  A    between atoms: C2_3  and  O4_24 
REMARK    3  A    between atoms: C3_4  and  C4_5 
REMARK    4  A    between atoms: C6_9  and  O2_11 
ROOT
HETATM    1  C4  UNL     1      25.542  -0.800  -3.381  1.00  0.00     0.190 C 
HETATM    2  C5  UNL     1      25.498   0.624  -3.851  1.00  0.00     0.243 C 
HETATM    3  O1  UNL     1      26.425   1.425  -3.554  1.00  0.00    -0.271 OA
HETATM    4  N2  UNL     1      24.406   1.071  -4.652  1.00  0.00    -0.322 N 
HETATM    5  C6  UNL     1      23.322   0.159  -5.031  1.00  0.00     0.190 C 
HETATM    6  C7  UNL     1      22.712   0.634  -6.365  1.00  0.00     0.080 C 
HETATM    7  C8  UNL     1      23.862  -1.259  -5.159  1.00  0.00     0.144 A 
HETATM    8  N3  UNL     1      24.925  -1.691  -4.394  1.00  0.00    -0.285 N 
HETATM    9  C9  UNL     1      25.365  -2.991  -4.512  1.00  0.00     0.262 A 
HETATM   10  O3  UNL     1      26.330  -3.404  -3.807  1.00  0.00    -0.267 OA
HETATM   11  C10 UNL     1      24.739  -3.875  -5.407  1.00  0.00     0.059 A 
HETATM   12  C11 UNL     1      23.648  -3.403  -6.153  1.00  0.00     0.049 A 
HETATM   13  C12 UNL     1      22.984  -4.251  -7.047  1.00  0.00     0.030 A 
HETATM   14  C13 UNL     1      23.407  -5.575  -7.201  1.00  0.00     0.002 A 
HETATM   15  C14 UNL     1      24.491  -6.053  -6.462  1.00  0.00     0.001 A 
HETATM   16  C15 UNL     1      25.158  -5.212  -5.565  1.00  0.00     0.019 A 
HETATM   17  N4  UNL     1      23.239  -2.123  -6.005  1.00  0.00    -0.341 N 
HETATM   18  H4  UNL     1      22.437  -1.794  -6.544  1.00  0.00     0.167 HD
HETATM   19  H5  UNL     1      24.338   2.088  -4.884  1.00  0.00     0.166 HD
ENDROOT
BRANCH   1  20
HETATM   20  C3  UNL     1      24.833  -1.010  -2.015  1.00  0.00     0.082 C 
BRANCH  20  21
HETATM   21  C2  UNL     1      25.616  -1.789  -0.899  1.00  0.00     0.133 C 
HETATM   22  C1  UNL     1      24.921  -3.166  -0.552  1.00  0.00     0.347 A 
HETATM   23  N1  UNL     1      24.809  -3.215   0.909  1.00  0.00    -0.182 NA
HETATM   24  N5  UNL     1      25.699  -4.349  -1.013  1.00  0.00     0.124 N 
HETATM   25  C17 UNL     1      25.120  -1.936   1.419  1.00  0.00     0.029 A 
HETATM   26  C25 UNL     1      25.430  -4.393   1.362  1.00  0.00     0.245 A 
HETATM   27  C16 UNL     1      25.550  -1.080   0.435  1.00  0.00     0.001 A 
HETATM   28  C18 UNL     1      25.040  -1.545   2.757  1.00  0.00     0.025 A 
HETATM   29  C21 UNL     1      25.940   0.225   0.760  1.00  0.00     0.012 A 
HETATM   30  C20 UNL     1      25.858   0.649   2.095  1.00  0.00     0.001 A 
HETATM   31  C19 UNL     1      25.408  -0.235   3.093  1.00  0.00     0.002 A 
HETATM   32  C22 UNL     1      25.988  -5.094   0.210  1.00  0.00     0.234 A 
HETATM   33  O5  UNL     1      25.534  -4.728   2.573  1.00  0.00    -0.276 OA
HETATM   34  C23 UNL     1      27.426  -5.562   0.319  1.00  0.00     0.054 A 
HETATM   35  C24 UNL     1      26.292  -6.577   0.148  1.00  0.00     0.054 A 
HETATM   36  H19 UNL     1      25.074  -4.939  -1.609  1.00  0.00     0.319 HD
BRANCH  21  37
HETATM   37  O4  UNL     1      26.973  -1.978  -1.224  1.00  0.00    -0.381 OA
HETATM   38  H14 UNL     1      27.499  -1.282  -0.751  1.00  0.00     0.211 HD
ENDBRANCH  21  37
ENDBRANCH  20  21
ENDBRANCH   1  20
BRANCH   5  39
HETATM   39  O2  UNL     1      22.329   0.162  -4.037  1.00  0.00    -0.364 OA
HETATM   40  H9  UNL     1      22.689   0.657  -3.255  1.00  0.00     0.213 HD
ENDBRANCH   5  39
TORSDOF 4
ENDMDL
MODEL 13
REMARK VINA RESULT:      -9.6      2.180      2.986
REMARK  4 active torsions:
REMARK  status: ('A' for Active; 'I' for Inactive)
REMARK    1  A    between atoms: C2_3  and  C3_4 
REMARK    2  A    between atoms: C2_3  and  O4_24 
REMARK    3  A    between atoms: C3_4  and  C4_5 
REMARK    4  A    between atoms: C6_9  and  O2_11 
ROOT
HETATM    1  C4  UNL     1      19.324   8.166  -4.360  1.00  0.00     0.190 C 
HETATM    2  C5  UNL     1      19.656   9.398  -3.569  1.00  0.00     0.243 C 
HETATM    3  O1  UNL     1      19.386   9.461  -2.339  1.00  0.00    -0.271 OA
HETATM    4  N2  UNL     1      20.296  10.499  -4.210  1.00  0.00    -0.322 N 
HETATM    5  C6  UNL     1      20.642  10.449  -5.634  1.00  0.00     0.190 C 
HETATM    6  C7  UNL     1      21.857  11.364  -5.886  1.00  0.00     0.080 C 
HETATM    7  C8  UNL     1      20.953   9.015  -6.039  1.00  0.00     0.144 A 
HETATM    8  N3  UNL     1      20.345   7.946  -5.414  1.00  0.00    -0.285 N 
HETATM    9  C9  UNL     1      20.624   6.664  -5.830  1.00  0.00     0.262 A 
HETATM   10  O3  UNL     1      20.063   5.677  -5.274  1.00  0.00    -0.267 OA
HETATM   11  C10 UNL     1      21.525   6.439  -6.885  1.00  0.00     0.059 A 
HETATM   12  C11 UNL     1      22.110   7.554  -7.508  1.00  0.00     0.049 A 
HETATM   13  C12 UNL     1      23.003   7.379  -8.572  1.00  0.00     0.030 A 
HETATM   14  C13 UNL     1      23.319   6.092  -9.017  1.00  0.00     0.002 A 
HETATM   15  C14 UNL     1      22.742   4.978  -8.402  1.00  0.00     0.001 A 
HETATM   16  C15 UNL     1      21.847   5.145  -7.341  1.00  0.00     0.019 A 
HETATM   17  N4  UNL     1      21.805   8.798  -7.078  1.00  0.00    -0.341 N 
HETATM   18  H4  UNL     1      22.226   9.601  -7.547  1.00  0.00     0.167 HD
HETATM   19  H5  UNL     1      20.427  11.385  -3.671  1.00  0.00     0.166 HD
ENDROOT
BRANCH   1  20
HETATM   20  C3  UNL     1      17.917   8.228  -5.014  1.00  0.00     0.082 C 
BRANCH  20  21
HETATM   21  C2  UNL     1      16.868   7.137  -4.593  1.00  0.00     0.133 C 
HETATM   22  C1  UNL     1      17.318   6.370  -3.286  1.00  0.00     0.347 A 
HETATM   23  N1  UNL     1      17.180   4.940  -3.579  1.00  0.00    -0.182 NA
HETATM   24  N5  UNL     1      16.484   6.697  -2.097  1.00  0.00     0.124 N 
HETATM   25  C17 UNL     1      16.952   4.792  -4.965  1.00  0.00     0.029 A 
HETATM   26  C25 UNL     1      16.350   4.364  -2.600  1.00  0.00     0.245 A 
HETATM   27  C16 UNL     1      16.802   6.004  -5.593  1.00  0.00     0.001 A 
HETATM   28  C18 UNL     1      16.859   3.583  -5.657  1.00  0.00     0.025 A 
HETATM   29  C21 UNL     1      16.530   6.056  -6.966  1.00  0.00     0.012 A 
HETATM   30  C20 UNL     1      16.444   4.855  -7.689  1.00  0.00     0.001 A 
HETATM   31  C19 UNL     1      16.608   3.621  -7.035  1.00  0.00     0.002 A 
HETATM   32  C22 UNL     1      15.906   5.417  -1.693  1.00  0.00     0.234 A 
HETATM   33  O5  UNL     1      16.006   3.151  -2.576  1.00  0.00    -0.276 OA
HETATM   34  C23 UNL     1      14.422   5.483  -1.387  1.00  0.00     0.054 A 
HETATM   35  C24 UNL     1      15.433   5.208  -0.270  1.00  0.00     0.054 A 
HETATM   36  H19 UNL     1      17.120   7.019  -1.331  1.00  0.00     0.319 HD
BRANCH  21  37
HETATM   37  O4  UNL     1      15.570   7.664  -4.446  1.00  0.00    -0.381 OA
HETATM   38  H14 UNL     1      15.024   7.343  -5.210  1.00  0.00     0.211 HD
ENDBRANCH  21  37
ENDBRANCH  20  21
ENDBRANCH   1  20
BRANCH   5  39
HETATM   39  O2  UNL     1      19.555  10.897  -6.403  1.00  0.00    -0.364 OA
HETATM   40  H9  UNL     1      19.652  10.511  -7.313  1.00  0.00     0.213 HD
ENDBRANCH   5  39
TORSDOF 4
ENDMDL
MODEL 14
REMARK VINA RESULT:      -9.6     11.402     13.708
REMARK  4 active torsions:
REMARK  status: ('A' for Active; 'I' for Inactive)
REMARK    1  A    between atoms: C2_3  and  C3_4 
REMARK    2  A    between atoms: C2_3  and  O4_24 
REMARK    3  A    between atoms: C3_4  and  C4_5 
REMARK    4  A    between atoms: C6_9  and  O2_11 
ROOT
HETATM    1  C4  UNL     1      25.686  -2.677  -1.416  1.00  0.00     0.190 C 
HETATM    2  C5  UNL     1      25.311  -4.118  -1.229  1.00  0.00     0.243 C 
HETATM    3  O1  UNL     1      24.755  -4.501  -0.164  1.00  0.00    -0.271 OA
HETATM    4  N2  UNL     1      25.572  -5.057  -2.270  1.00  0.00    -0.322 N 
HETATM    5  C6  UNL     1      26.199  -4.639  -3.527  1.00  0.00     0.190 C 
HETATM    6  C7  UNL     1      25.747  -5.591  -4.652  1.00  0.00     0.080 C 
HETATM    7  C8  UNL     1      25.808  -3.203  -3.846  1.00  0.00     0.144 A 
HETATM    8  N3  UNL     1      25.544  -2.294  -2.842  1.00  0.00    -0.285 N 
HETATM    9  C9  UNL     1      25.227  -0.993  -3.167  1.00  0.00     0.262 A 
HETATM   10  O3  UNL     1      24.995  -0.147  -2.257  1.00  0.00    -0.267 OA
HETATM   11  C10 UNL     1      25.170  -0.590  -4.512  1.00  0.00     0.059 A 
HETATM   12  C11 UNL     1      25.464  -1.540  -5.503  1.00  0.00     0.049 A 
HETATM   13  C12 UNL     1      25.433  -1.181  -6.856  1.00  0.00     0.030 A 
HETATM   14  C13 UNL     1      25.107   0.127  -7.226  1.00  0.00     0.002 A 
HETATM   15  C14 UNL     1      24.813   1.078  -6.246  1.00  0.00     0.001 A 
HETATM   16  C15 UNL     1      24.844   0.727  -4.892  1.00  0.00     0.019 A 
HETATM   17  N4  UNL     1      25.779  -2.805  -5.146  1.00  0.00    -0.341 N 
HETATM   18  H4  UNL     1      26.003  -3.484  -5.875  1.00  0.00     0.167 HD
HETATM   19  H5  UNL     1      25.400  -6.072  -2.083  1.00  0.00     0.166 HD
ENDROOT
BRANCH   1  20
HETATM   20  C3  UNL     1      27.131  -2.360  -0.942  1.00  0.00     0.082 C 
BRANCH  20  21
HETATM   21  C2  UNL     1      27.299  -1.466   0.338  1.00  0.00     0.133 C 
HETATM   22  C1  UNL     1      26.071  -1.618   1.321  1.00  0.00     0.347 A 
HETATM   23  N1  UNL     1      25.644  -0.257   1.661  1.00  0.00    -0.182 NA
HETATM   24  N5  UNL     1      26.409  -2.342   2.577  1.00  0.00     0.124 N 
HETATM   25  C17 UNL     1      26.310   0.643   0.802  1.00  0.00     0.029 A 
HETATM   26  C25 UNL     1      25.651  -0.127   3.062  1.00  0.00     0.245 A 
HETATM   27  C16 UNL     1      27.233   0.008   0.007  1.00  0.00     0.001 A 
HETATM   28  C18 UNL     1      26.108   2.024   0.744  1.00  0.00     0.025 A 
HETATM   29  C21 UNL     1      28.020   0.748  -0.885  1.00  0.00     0.012 A 
HETATM   30  C20 UNL     1      27.829   2.136  -0.973  1.00  0.00     0.001 A 
HETATM   31  C19 UNL     1      26.874   2.773  -0.160  1.00  0.00     0.002 A 
HETATM   32  C22 UNL     1      26.124  -1.381   3.640  1.00  0.00     0.234 A 
HETATM   33  O5  UNL     1      25.362   0.930   3.685  1.00  0.00    -0.276 OA
HETATM   34  C23 UNL     1      27.212  -1.288   4.692  1.00  0.00     0.054 A 
HETATM   35  C24 UNL     1      25.837  -1.861   5.048  1.00  0.00     0.054 A 
HETATM   36  H19 UNL     1      25.745  -3.144   2.681  1.00  0.00     0.319 HD
BRANCH  21  37
HETATM   37  O4  UNL     1      28.514  -1.707   1.009  1.00  0.00    -0.381 OA
HETATM   38  H14 UNL     1      28.300  -2.122   1.885  1.00  0.00     0.211 HD
ENDBRANCH  21  37
ENDBRANCH  20  21
ENDBRANCH   1  20
BRANCH   5  39
HETATM   39  O2  UNL     1      27.597  -4.697  -3.403  1.00  0.00    -0.364 OA
HETATM   40  H9  UNL     1      27.805  -5.053  -2.499  1.00  0.00     0.213 HD
ENDBRANCH   5  39
TORSDOF 4
ENDMDL
MODEL 15
REMARK VINA RESULT:      -9.5     13.485     16.492
REMARK  4 active torsions:
REMARK  status: ('A' for Active; 'I' for Inactive)
REMARK    1  A    between atoms: C2_3  and  C3_4 
REMARK    2  A    between atoms: C2_3  and  O4_24 
REMARK    3  A    between atoms: C3_4  and  C4_5 
REMARK    4  A    between atoms: C6_9  and  O2_11 
ROOT
HETATM    1  C4  UNL     1      26.211  -2.347   3.064  1.00  0.00     0.190 C 
HETATM    2  C5  UNL     1      25.619  -1.619   4.235  1.00  0.00     0.243 C 
HETATM    3  O1  UNL     1      24.760  -0.713   4.057  1.00  0.00    -0.271 OA
HETATM    4  N2  UNL     1      26.020  -1.964   5.559  1.00  0.00    -0.322 N 
HETATM    5  C6  UNL     1      27.002  -3.026   5.800  1.00  0.00     0.190 C 
HETATM    6  C7  UNL     1      26.740  -3.643   7.188  1.00  0.00     0.080 C 
HETATM    7  C8  UNL     1      26.895  -4.084   4.710  1.00  0.00     0.144 A 
HETATM    8  N3  UNL     1      26.497  -3.756   3.431  1.00  0.00    -0.285 N 
HETATM    9  C9  UNL     1      26.445  -4.734   2.462  1.00  0.00     0.262 A 
HETATM   10  O3  UNL     1      26.094  -4.444   1.283  1.00  0.00    -0.267 OA
HETATM   11  C10 UNL     1      26.793  -6.060   2.771  1.00  0.00     0.059 A 
HETATM   12  C11 UNL     1      27.212  -6.349   4.079  1.00  0.00     0.049 A 
HETATM   13  C12 UNL     1      27.582  -7.653   4.429  1.00  0.00     0.030 A 
HETATM   14  C13 UNL     1      27.533  -8.675   3.475  1.00  0.00     0.002 A 
HETATM   15  C14 UNL     1      27.118  -8.395   2.171  1.00  0.00     0.001 A 
HETATM   16  C15 UNL     1      26.749  -7.094   1.814  1.00  0.00     0.019 A 
HETATM   17  N4  UNL     1      27.258  -5.362   5.002  1.00  0.00    -0.341 N 
HETATM   18  H4  UNL     1      27.575  -5.583   5.946  1.00  0.00     0.167 HD
HETATM   19  H5  UNL     1      25.676  -1.379   6.355  1.00  0.00     0.166 HD
ENDROOT
BRANCH   1  20
HETATM   20  C3  UNL     1      27.511  -1.683   2.532  1.00  0.00     0.082 C 
BRANCH  20  21
HETATM   21  C2  UNL     1      27.420  -0.882   1.184  1.00  0.00     0.133 C 
HETATM   22  C1  UNL     1      26.135   0.037   1.136  1.00  0.00     0.347 A 
HETATM   23  N1  UNL     1      25.486  -0.230  -0.152  1.00  0.00    -0.182 NA
HETATM   24  N5  UNL     1      26.448   1.489   1.223  1.00  0.00     0.124 N 
HETATM   25  C17 UNL     1      26.097  -1.363  -0.730  1.00  0.00     0.029 A 
HETATM   26  C25 UNL     1      25.335   0.992  -0.833  1.00  0.00     0.245 A 
HETATM   27  C16 UNL     1      27.176  -1.795   0.002  1.00  0.00     0.001 A 
HETATM   28  C18 UNL     1      25.705  -1.993  -1.913  1.00  0.00     0.025 A 
HETATM   29  C21 UNL     1      27.933  -2.888  -0.439  1.00  0.00     0.012 A 
HETATM   30  C20 UNL     1      27.554  -3.547  -1.618  1.00  0.00     0.001 A 
HETATM   31  C19 UNL     1      26.442  -3.101  -2.354  1.00  0.00     0.002 A 
HETATM   32  C22 UNL     1      25.923   2.051  -0.019  1.00  0.00     0.234 A 
HETATM   33  O5  UNL     1      24.836   1.113  -1.985  1.00  0.00    -0.276 OA
HETATM   34  C23 UNL     1      26.878   3.004  -0.713  1.00  0.00     0.054 A 
HETATM   35  C24 UNL     1      25.571   3.521  -0.104  1.00  0.00     0.054 A 
HETATM   36  H19 UNL     1      25.899   1.895   2.016  1.00  0.00     0.319 HD
BRANCH  21  37
HETATM   37  O4  UNL     1      28.584  -0.134   0.922  1.00  0.00    -0.381 OA
HETATM   38  H14 UNL     1      29.367  -0.718   1.095  1.00  0.00     0.211 HD
ENDBRANCH  21  37
ENDBRANCH  20  21
ENDBRANCH   1  20
BRANCH   5  39
HETATM   39  O2  UNL     1      28.300  -2.490   5.766  1.00  0.00    -0.364 OA
HETATM   40  H9  UNL     1      28.269  -1.599   6.206  1.00  0.00     0.213 HD
ENDBRANCH   5  39
TORSDOF 4
ENDMDL
MODEL 16
REMARK VINA RESULT:      -9.5      2.499      4.618
REMARK  4 active torsions:
REMARK  status: ('A' for Active; 'I' for Inactive)
REMARK    1  A    between atoms: C2_3  and  C3_4 
REMARK    2  A    between atoms: C2_3  and  O4_24 
REMARK    3  A    between atoms: C3_4  and  C4_5 
REMARK    4  A    between atoms: C6_9  and  O2_11 
ROOT
HETATM    1  C4  UNL     1      17.813   8.878  -5.994  1.00  0.00     0.190 C 
HETATM    2  C5  UNL     1      16.327   8.866  -5.784  1.00  0.00     0.243 C 
HETATM    3  O1  UNL     1      15.843   8.601  -4.651  1.00  0.00    -0.271 OA
HETATM    4  N2  UNL     1      15.458   9.173  -6.871  1.00  0.00    -0.322 N 
HETATM    5  C6  UNL     1      15.990   9.505  -8.196  1.00  0.00     0.190 C 
HETATM    6  C7  UNL     1      14.984  10.419  -8.924  1.00  0.00     0.080 C 
HETATM    7  C8  UNL     1      17.340  10.195  -8.052  1.00  0.00     0.144 A 
HETATM    8  N3  UNL     1      18.180   9.909  -6.996  1.00  0.00    -0.285 N 
HETATM    9  C9  UNL     1      19.408  10.526  -6.916  1.00  0.00     0.262 A 
HETATM   10  O3  UNL     1      20.192  10.264  -5.960  1.00  0.00    -0.267 OA
HETATM   11  C10 UNL     1      19.808  11.444  -7.902  1.00  0.00     0.059 A 
HETATM   12  C11 UNL     1      18.933  11.694  -8.971  1.00  0.00     0.049 A 
HETATM   13  C12 UNL     1      19.294  12.590  -9.984  1.00  0.00     0.030 A 
HETATM   14  C13 UNL     1      20.529  13.243  -9.933  1.00  0.00     0.002 A 
HETATM   15  C14 UNL     1      21.405  13.001  -8.873  1.00  0.00     0.001 A 
HETATM   16  C15 UNL     1      21.052  12.105  -7.859  1.00  0.00     0.019 A 
HETATM   17  N4  UNL     1      17.738  11.063  -9.020  1.00  0.00    -0.341 N 
HETATM   18  H4  UNL     1      17.116  11.243  -9.809  1.00  0.00     0.167 HD
HETATM   19  H5  UNL     1      14.427   9.060  -6.735  1.00  0.00     0.166 HD
ENDROOT
BRANCH   1  20
HETATM   20  C3  UNL     1      18.372   7.501  -6.449  1.00  0.00     0.082 C 
BRANCH  20  21
HETATM   21  C2  UNL     1      19.251   6.697  -5.426  1.00  0.00     0.133 C 
HETATM   22  C1  UNL     1      18.893   7.067  -3.931  1.00  0.00     0.347 A 
HETATM   23  N1  UNL     1      20.166   7.348  -3.259  1.00  0.00    -0.182 NA
HETATM   24  N5  UNL     1      18.200   5.969  -3.204  1.00  0.00     0.124 N 
HETATM   25  C17 UNL     1      21.176   7.431  -4.242  1.00  0.00     0.029 A 
HETATM   26  C25 UNL     1      20.263   6.517  -2.128  1.00  0.00     0.245 A 
HETATM   27  C16 UNL     1      20.706   7.106  -5.491  1.00  0.00     0.001 A 
HETATM   28  C18 UNL     1      22.511   7.775  -4.020  1.00  0.00     0.025 A 
HETATM   29  C21 UNL     1      21.576   7.095  -6.589  1.00  0.00     0.012 A 
HETATM   30  C20 UNL     1      22.921   7.449  -6.396  1.00  0.00     0.001 A 
HETATM   31  C19 UNL     1      23.387   7.788  -5.113  1.00  0.00     0.002 A 
HETATM   32  C22 UNL     1      19.082   5.662  -2.080  1.00  0.00     0.234 A 
HETATM   33  O5  UNL     1      21.250   6.487  -1.344  1.00  0.00    -0.276 OA
HETATM   34  C23 UNL     1      19.314   4.178  -1.870  1.00  0.00     0.054 A 
HETATM   35  C24 UNL     1      18.532   4.995  -0.837  1.00  0.00     0.054 A 
HETATM   36  H19 UNL     1      17.305   6.347  -2.816  1.00  0.00     0.319 HD
BRANCH  21  37
HETATM   37  O4  UNL     1      19.181   5.306  -5.630  1.00  0.00    -0.381 OA
HETATM   38  H14 UNL     1      18.637   4.917  -4.897  1.00  0.00     0.211 HD
ENDBRANCH  21  37
ENDBRANCH  20  21
ENDBRANCH   1  20
BRANCH   5  39
HETATM   39  O2  UNL     1      16.175   8.329  -8.943  1.00  0.00    -0.364 OA
HETATM   40  H9  UNL     1      16.331   8.595  -9.887  1.00  0.00     0.213 HD
ENDBRANCH   5  39
TORSDOF 4
ENDMDL
MODEL 17
REMARK VINA RESULT:      -9.4     11.854     14.320
REMARK  4 active torsions:
REMARK  status: ('A' for Active; 'I' for Inactive)
REMARK    1  A    between atoms: C2_3  and  C3_4 
REMARK    2  A    between atoms: C2_3  and  O4_24 
REMARK    3  A    between atoms: C3_4  and  C4_5 
REMARK    4  A    between atoms: C6_9  and  O2_11 
ROOT
HETATM    1  C4  UNL     1      26.005  -3.332  -3.171  1.00  0.00     0.190 C 
HETATM    2  C5  UNL     1      26.944  -4.502  -3.220  1.00  0.00     0.243 C 
HETATM    3  O1  UNL     1      27.565  -4.780  -4.281  1.00  0.00    -0.271 OA
HETATM    4  N2  UNL     1      27.146  -5.295  -2.052  1.00  0.00    -0.322 N 
HETATM    5  C6  UNL     1      26.454  -4.986  -0.798  1.00  0.00     0.190 C 
HETATM    6  C7  UNL     1      27.311  -5.484   0.382  1.00  0.00     0.080 C 
HETATM    7  C8  UNL     1      26.216  -3.485  -0.696  1.00  0.00     0.144 A 
HETATM    8  N3  UNL     1      26.031  -2.712  -1.823  1.00  0.00    -0.285 N 
HETATM    9  C9  UNL     1      25.785  -1.363  -1.692  1.00  0.00     0.262 A 
HETATM   10  O3  UNL     1      25.601  -0.646  -2.717  1.00  0.00    -0.267 OA
HETATM   11  C10 UNL     1      25.722  -0.773  -0.418  1.00  0.00     0.059 A 
HETATM   12  C11 UNL     1      25.897  -1.597   0.705  1.00  0.00     0.049 A 
HETATM   13  C12 UNL     1      25.829  -1.056   1.994  1.00  0.00     0.030 A 
HETATM   14  C13 UNL     1      25.589   0.311   2.168  1.00  0.00     0.002 A 
HETATM   15  C14 UNL     1      25.415   1.137   1.056  1.00  0.00     0.001 A 
HETATM   16  C15 UNL     1      25.479   0.603  -0.235  1.00  0.00     0.019 A 
HETATM   17  N4  UNL     1      26.129  -2.918   0.537  1.00  0.00    -0.341 N 
HETATM   18  H4  UNL     1      26.242  -3.509   1.362  1.00  0.00     0.167 HD
HETATM   19  H5  UNL     1      27.721  -6.165  -2.131  1.00  0.00     0.166 HD
ENDROOT
BRANCH   1  20
HETATM   20  C3  UNL     1      24.543  -3.713  -3.531  1.00  0.00     0.082 C 
BRANCH  20  21
HETATM   21  C2  UNL     1      24.239  -4.113  -5.019  1.00  0.00     0.133 C 
HETATM   22  C1  UNL     1      24.920  -3.119  -6.042  1.00  0.00     0.347 A 
HETATM   23  N1  UNL     1      23.876  -2.731  -6.996  1.00  0.00    -0.182 NA
HETATM   24  N5  UNL     1      26.050  -3.731  -6.792  1.00  0.00     0.124 N 
HETATM   25  C17 UNL     1      22.633  -3.177  -6.498  1.00  0.00     0.029 A 
HETATM   26  C25 UNL     1      24.332  -3.022  -8.295  1.00  0.00     0.245 A 
HETATM   27  C16 UNL     1      22.777  -3.936  -5.362  1.00  0.00     0.001 A 
HETATM   28  C18 UNL     1      21.383  -2.925  -7.067  1.00  0.00     0.025 A 
HETATM   29  C21 UNL     1      21.652  -4.499  -4.746  1.00  0.00     0.012 A 
HETATM   30  C20 UNL     1      20.382  -4.251  -5.290  1.00  0.00     0.001 A 
HETATM   31  C19 UNL     1      20.247  -3.465  -6.449  1.00  0.00     0.002 A 
HETATM   32  C22 UNL     1      25.649  -3.642  -8.194  1.00  0.00     0.234 A 
HETATM   33  O5  UNL     1      23.664  -2.835  -9.347  1.00  0.00    -0.276 OA
HETATM   34  C23 UNL     1      25.871  -4.920  -8.979  1.00  0.00     0.054 A 
HETATM   35  C24 UNL     1      26.693  -3.666  -9.291  1.00  0.00     0.054 A 
HETATM   36  H19 UNL     1      26.895  -3.128  -6.660  1.00  0.00     0.319 HD
BRANCH  21  37
HETATM   37  O4  UNL     1      24.593  -5.447  -5.302  1.00  0.00    -0.381 OA
HETATM   38  H14 UNL     1      25.110  -5.795  -4.530  1.00  0.00     0.211 HD
ENDBRANCH  21  37
ENDBRANCH  20  21
ENDBRANCH   1  20
BRANCH   5  39
HETATM   39  O2  UNL     1      25.206  -5.630  -0.772  1.00  0.00    -0.364 OA
HETATM   40  H9  UNL     1      24.509  -4.932  -0.648  1.00  0.00     0.213 HD
ENDBRANCH   5  39
TORSDOF 4
ENDMDL
MODEL 18
REMARK VINA RESULT:      -9.3      3.154      6.233
REMARK  4 active torsions:
REMARK  status: ('A' for Active; 'I' for Inactive)
REMARK    1  A    between atoms: C2_3  and  C3_4 
REMARK    2  A    between atoms: C2_3  and  O4_24 
REMARK    3  A    between atoms: C3_4  and  C4_5 
REMARK    4  A    between atoms: C6_9  and  O2_11 
ROOT
HETATM    1  C4  UNL     1      19.742  10.692  -9.047  1.00  0.00     0.190 C 
HETATM    2  C5  UNL     1      20.730  11.551  -9.779  1.00  0.00     0.243 C 
HETATM    3  O1  UNL     1      21.919  11.165  -9.939  1.00  0.00    -0.271 OA
HETATM    4  N2  UNL     1      20.317  12.808 -10.310  1.00  0.00    -0.322 N 
HETATM    5  C6  UNL     1      18.936  13.278 -10.158  1.00  0.00     0.190 C 
HETATM    6  C7  UNL     1      18.596  14.219 -11.331  1.00  0.00     0.080 C 
HETATM    7  C8  UNL     1      17.987  12.087 -10.128  1.00  0.00     0.144 A 
HETATM    8  N3  UNL     1      18.386  10.866  -9.625  1.00  0.00    -0.285 N 
HETATM    9  C9  UNL     1      17.491   9.821  -9.582  1.00  0.00     0.262 A 
HETATM   10  O3  UNL     1      17.840   8.701  -9.112  1.00  0.00    -0.267 OA
HETATM   11  C10 UNL     1      16.176   9.993 -10.048  1.00  0.00     0.059 A 
HETATM   12  C11 UNL     1      15.803  11.256 -10.535  1.00  0.00     0.049 A 
HETATM   13  C12 UNL     1      14.500  11.477 -10.997  1.00  0.00     0.030 A 
HETATM   14  C13 UNL     1      13.564  10.438 -10.977  1.00  0.00     0.002 A 
HETATM   15  C14 UNL     1      13.928   9.178 -10.495  1.00  0.00     0.001 A 
HETATM   16  C15 UNL     1      15.227   8.951 -10.030  1.00  0.00     0.019 A 
HETATM   17  N4  UNL     1      16.707  12.260 -10.554  1.00  0.00    -0.341 N 
HETATM   18  H4  UNL     1      16.420  13.177 -10.899  1.00  0.00     0.167 HD
HETATM   19  H5  UNL     1      21.041  13.439 -10.726  1.00  0.00     0.166 HD
ENDROOT
BRANCH   1  20
HETATM   20  C3  UNL     1      19.691  10.990  -7.523  1.00  0.00     0.082 C 
BRANCH  20  21
HETATM   21  C2  UNL     1      19.835   9.776  -6.538  1.00  0.00     0.133 C 
HETATM   22  C1  UNL     1      18.567   9.625  -5.607  1.00  0.00     0.347 A 
HETATM   23  N1  UNL     1      19.073   9.496  -4.237  1.00  0.00    -0.182 NA
HETATM   24  N5  UNL     1      17.742   8.428  -5.928  1.00  0.00     0.124 N 
HETATM   25  C17 UNL     1      20.450   9.806  -4.243  1.00  0.00     0.029 A 
HETATM   26  C25 UNL     1      18.557   8.310  -3.684  1.00  0.00     0.245 A 
HETATM   27  C16 UNL     1      20.926  10.008  -5.516  1.00  0.00     0.001 A 
HETATM   28  C18 UNL     1      21.277   9.889  -3.122  1.00  0.00     0.025 A 
HETATM   29  C21 UNL     1      22.283  10.289  -5.723  1.00  0.00     0.012 A 
HETATM   30  C20 UNL     1      23.135  10.390  -4.612  1.00  0.00     0.001 A 
HETATM   31  C19 UNL     1      22.633  10.191  -3.313  1.00  0.00     0.002 A 
HETATM   32  C22 UNL     1      17.752   7.638  -4.699  1.00  0.00     0.234 A 
HETATM   33  O5  UNL     1      18.820   7.886  -2.526  1.00  0.00    -0.276 OA
HETATM   34  C23 UNL     1      18.014   6.161  -4.921  1.00  0.00     0.054 A 
HETATM   35  C24 UNL     1      16.647   6.639  -4.423  1.00  0.00     0.054 A 
HETATM   36  H19 UNL     1      16.759   8.745  -6.099  1.00  0.00     0.319 HD
BRANCH  21  37
HETATM   37  O4  UNL     1      20.116   8.568  -7.206  1.00  0.00    -0.381 OA
HETATM   38  H14 UNL     1      19.252   8.119  -7.397  1.00  0.00     0.211 HD
ENDBRANCH  21  37
ENDBRANCH  20  21
ENDBRANCH   1  20
BRANCH   5  39
HETATM   39  O2  UNL     1      18.803  13.976  -8.946  1.00  0.00    -0.364 OA
HETATM   40  H9  UNL     1      18.181  13.460  -8.369  1.00  0.00     0.213 HD
ENDBRANCH   5  39
TORSDOF 4
ENDMDL
MODEL 19
REMARK VINA RESULT:      -9.3     11.267     13.731
REMARK  4 active torsions:
REMARK  status: ('A' for Active; 'I' for Inactive)
REMARK    1  A    between atoms: C2_3  and  C3_4 
REMARK    2  A    between atoms: C2_3  and  O4_24 
REMARK    3  A    between atoms: C3_4  and  C4_5 
REMARK    4  A    between atoms: C6_9  and  O2_11 
ROOT
HETATM    1  C4  UNL     1      25.251  -3.315  -4.361  1.00  0.00     0.190 C 
HETATM    2  C5  UNL     1      26.629  -3.526  -4.916  1.00  0.00     0.243 C 
HETATM    3  O1  UNL     1      27.354  -4.464  -4.487  1.00  0.00    -0.271 OA
HETATM    4  N2  UNL     1      27.115  -2.669  -5.947  1.00  0.00    -0.322 N 
HETATM    5  C6  UNL     1      26.289  -1.583  -6.480  1.00  0.00     0.190 C 
HETATM    6  C7  UNL     1      26.712  -1.302  -7.936  1.00  0.00     0.080 C 
HETATM    7  C8  UNL     1      24.819  -1.971  -6.411  1.00  0.00     0.144 A 
HETATM    8  N3  UNL     1      24.346  -2.808  -5.422  1.00  0.00    -0.285 N 
HETATM    9  C9  UNL     1      23.003  -3.110  -5.369  1.00  0.00     0.262 A 
HETATM   10  O3  UNL     1      22.555  -3.866  -4.460  1.00  0.00    -0.267 OA
HETATM   11  C10 UNL     1      22.116  -2.571  -6.317  1.00  0.00     0.059 A 
HETATM   12  C11 UNL     1      22.633  -1.708  -7.296  1.00  0.00     0.049 A 
HETATM   13  C12 UNL     1      21.784  -1.137  -8.252  1.00  0.00     0.030 A 
HETATM   14  C13 UNL     1      20.417  -1.427  -8.236  1.00  0.00     0.002 A 
HETATM   15  C14 UNL     1      19.894  -2.285  -7.266  1.00  0.00     0.001 A 
HETATM   16  C15 UNL     1      20.735  -2.857  -6.306  1.00  0.00     0.019 A 
HETATM   17  N4  UNL     1      23.955  -1.428  -7.311  1.00  0.00    -0.341 N 
HETATM   18  H4  UNL     1      24.317  -0.790  -8.020  1.00  0.00     0.167 HD
HETATM   19  H5  UNL     1      28.112  -2.766  -6.248  1.00  0.00     0.166 HD
ENDROOT
BRANCH   1  20
HETATM   20  C3  UNL     1      25.227  -2.334  -3.156  1.00  0.00     0.082 C 
BRANCH  20  21
HETATM   21  C2  UNL     1      25.866  -2.821  -1.807  1.00  0.00     0.133 C 
HETATM   22  C1  UNL     1      25.075  -4.045  -1.194  1.00  0.00     0.347 A 
HETATM   23  N1  UNL     1      24.829  -3.714   0.213  1.00  0.00    -0.182 NA
HETATM   24  N5  UNL     1      25.830  -5.325  -1.260  1.00  0.00     0.124 N 
HETATM   25  C17 UNL     1      25.157  -2.355   0.412  1.00  0.00     0.029 A 
HETATM   26  C25 UNL     1      25.347  -4.752   1.009  1.00  0.00     0.245 A 
HETATM   27  C16 UNL     1      25.716  -1.791  -0.709  1.00  0.00     0.001 A 
HETATM   28  C18 UNL     1      24.977  -1.632   1.593  1.00  0.00     0.025 A 
HETATM   29  C21 UNL     1      26.141  -0.457  -0.688  1.00  0.00     0.012 A 
HETATM   30  C20 UNL     1      25.960   0.297   0.482  1.00  0.00     0.001 A 
HETATM   31  C19 UNL     1      25.378  -0.289   1.621  1.00  0.00     0.002 A 
HETATM   32  C22 UNL     1      25.970  -5.739   0.134  1.00  0.00     0.234 A 
HETATM   33  O5  UNL     1      25.325  -4.766   2.270  1.00  0.00    -0.276 OA
HETATM   34  C23 UNL     1      27.367  -6.200   0.500  1.00  0.00     0.054 A 
HETATM   35  C24 UNL     1      26.203  -7.195   0.480  1.00  0.00     0.054 A 
HETATM   36  H19 UNL     1      25.232  -6.033  -1.747  1.00  0.00     0.319 HD
BRANCH  21  37
HETATM   37  O4  UNL     1      27.236  -3.122  -1.936  1.00  0.00    -0.381 OA
HETATM   38  H14 UNL     1      27.559  -2.712  -2.780  1.00  0.00     0.211 HD
ENDBRANCH  21  37
ENDBRANCH  20  21
ENDBRANCH   1  20
BRANCH   5  39
HETATM   39  O2  UNL     1      26.474  -0.422  -5.710  1.00  0.00    -0.364 OA
HETATM   40  H9  UNL     1      27.288   0.036  -6.048  1.00  0.00     0.213 HD
ENDBRANCH   5  39
TORSDOF 4
ENDMDL
