REMARK  5 active torsions:
REMARK  status: ('A' for Active; 'I' for Inactive)
REMARK    1  A    between atoms: C1_1  and  C2_2 
REMARK    2  A    between atoms: C2_2  and  C3_3 
REMARK    3  A    between atoms: C14_17  and  C15_18 
REMARK    4  A    between atoms: C19_24  and  C20_25 
REMARK    5  A    between atoms: C20_25  and  C21_26 
ROOT
HETATM    1  C15 UNL     1      -1.507  -1.766  -1.003  1.00  0.00     0.045 C 
HETATM    2  C16 UNL     1      -0.631  -2.433  -2.098  1.00  0.00     0.054 C 
HETATM    3  C17 UNL     1       0.249  -3.453  -1.373  1.00  0.00     0.182 C 
HETATM    4  C18 UNL     1       1.635  -3.562  -1.940  1.00  0.00     0.241 C 
HETATM    5  O2  UNL     1       1.811  -3.536  -3.189  1.00  0.00    -0.271 OA
HETATM    6  N3  UNL     1       2.754  -3.776  -1.072  1.00  0.00    -0.346 N 
HETATM    7  C19 UNL     1       2.624  -3.971   0.379  1.00  0.00     0.181 C 
HETATM    8  C27 UNL     1       1.332  -3.397   0.911  1.00  0.00     0.245 C 
HETATM    9  O3  UNL     1       1.158  -3.282   2.154  1.00  0.00    -0.271 OA
HETATM   10  N4  UNL     1       0.289  -3.014   0.008  1.00  0.00    -0.314 N 
HETATM   11  C28 UNL     1      -0.770  -2.079   0.347  1.00  0.00     0.202 C 
HETATM   12  N5  UNL     1      -1.750  -2.730   1.212  1.00  0.00    -0.367 N 
HETATM   13  C29 UNL     1      -2.807  -2.525  -0.824  1.00  0.00    -0.018 A 
HETATM   14  C30 UNL     1      -3.751  -2.902  -1.789  1.00  0.00     0.010 A 
HETATM   15  C31 UNL     1      -4.847  -3.688  -1.398  1.00  0.00     0.001 A 
HETATM   16  C32 UNL     1      -2.903  -3.012   0.455  1.00  0.00     0.036 A 
HETATM   17  C33 UNL     1      -3.970  -3.811   0.868  1.00  0.00     0.030 A 
HETATM   18  C34 UNL     1      -4.963  -4.133  -0.068  1.00  0.00     0.002 A 
HETATM   19  H22 UNL     1       3.678  -3.973  -1.520  1.00  0.00     0.163 HD
HETATM   20  H31 UNL     1      -1.565  -3.076   2.181  1.00  0.00     0.161 HD
ENDROOT
BRANCH   1  21
HETATM   21  C14 UNL     1      -1.713  -0.207  -1.216  1.00  0.00     0.045 C 
HETATM   22  C7  UNL     1      -0.348   0.570  -1.208  1.00  0.00     0.202 C 
HETATM   23  N1  UNL     1      -0.543   1.693  -0.306  1.00  0.00    -0.314 N 
HETATM   24  N2  UNL     1      -0.142   1.057  -2.568  1.00  0.00    -0.367 N 
HETATM   25  C6  UNL     1       0.524   2.516   0.183  1.00  0.00     0.245 C 
HETATM   26  C36 UNL     1      -1.916   1.832   0.147  1.00  0.00     0.182 C 
HETATM   27  C1  UNL     1       0.259   3.461   1.338  1.00  0.00     0.177 C 
HETATM   28  O1  UNL     1       1.640   2.507  -0.403  1.00  0.00    -0.271 OA
HETATM   29  N6  UNL     1      -0.832   2.929   2.166  1.00  0.00    -0.346 N 
HETATM   30  C37 UNL     1      -1.958   2.258   1.588  1.00  0.00     0.241 C 
HETATM   31  H38 UNL     1      -0.839   3.083   3.200  1.00  0.00     0.163 HD
HETATM   32  O4  UNL     1      -2.992   2.063   2.281  1.00  0.00    -0.271 OA
HETATM   33  C35 UNL     1      -2.561   0.467  -0.103  1.00  0.00     0.054 C 
HETATM   34  C8  UNL     1      -1.312   0.824  -3.316  1.00  0.00     0.036 A 
HETATM   35  H15 UNL     1       0.673   1.629  -2.889  1.00  0.00     0.161 HD
HETATM   36  C9  UNL     1      -1.576   1.326  -4.590  1.00  0.00     0.030 A 
HETATM   37  C13 UNL     1      -2.258   0.147  -2.587  1.00  0.00    -0.018 A 
HETATM   38  C10 UNL     1      -2.857   1.138  -5.128  1.00  0.00     0.002 A 
HETATM   39  C11 UNL     1      -3.853   0.499  -4.369  1.00  0.00     0.001 A 
HETATM   40  C12 UNL     1      -3.565   0.025  -3.079  1.00  0.00     0.010 A 
BRANCH  27  41
HETATM   41  C2  UNL     1       1.520   3.714   2.214  1.00  0.00     0.038 C 
BRANCH  41  42
HETATM   42  C3  UNL     1       1.606   5.155   2.778  1.00  0.00    -0.020 C 
HETATM   43  C4  UNL     1       0.424   5.505   3.694  1.00  0.00     0.009 C 
HETATM   44  C5  UNL     1       2.924   5.345   3.537  1.00  0.00     0.009 C 
ENDBRANCH  41  42
ENDBRANCH  27  41
ENDBRANCH   1  21
BRANCH   7  45
HETATM   45  C20 UNL     1       3.851  -3.374   1.104  1.00  0.00     0.073 C 
BRANCH  45  46
HETATM   46  C21 UNL     1       3.980  -1.879   0.915  1.00  0.00    -0.056 A 
HETATM   47  C22 UNL     1       3.426  -0.990   1.854  1.00  0.00     0.007 A 
HETATM   48  C23 UNL     1       3.544   0.390   1.674  1.00  0.00     0.001 A 
HETATM   49  C24 UNL     1       4.212   0.897   0.556  1.00  0.00     0.000 A 
HETATM   50  C25 UNL     1       4.755   0.022  -0.389  1.00  0.00     0.001 A 
HETATM   51  C26 UNL     1       4.647  -1.360  -0.208  1.00  0.00     0.007 A 
ENDBRANCH  45  46
ENDBRANCH   7  45
TORSDOF 5
