MODEL 1
REMARK VINA RESULT:     -10.9      0.000      0.000
REMARK  5 active torsions:
REMARK  status: ('A' for Active; 'I' for Inactive)
REMARK    1  A    between atoms: C1_1  and  C2_2 
REMARK    2  A    between atoms: C2_2  and  C3_3 
REMARK    3  A    between atoms: C14_17  and  C15_18 
REMARK    4  A    between atoms: C19_24  and  C20_25 
REMARK    5  A    between atoms: C20_25  and  C21_26 
ROOT
HETATM    1  C15 UNL     1      21.129   7.214  -6.608  1.00  0.00     0.045 C 
HETATM    2  C16 UNL     1      21.490   6.702  -5.187  1.00  0.00     0.054 C 
HETATM    3  C17 UNL     1      20.384   5.719  -4.797  1.00  0.00     0.182 C 
HETATM    4  C18 UNL     1      20.018   5.773  -3.342  1.00  0.00     0.241 C 
HETATM    5  O2  UNL     1      20.918   5.897  -2.468  1.00  0.00    -0.271 OA
HETATM    6  N3  UNL     1      18.655   5.603  -2.936  1.00  0.00    -0.346 N 
HETATM    7  C19 UNL     1      17.564   5.302  -3.874  1.00  0.00     0.181 C 
HETATM    8  C27 UNL     1      17.903   5.721  -5.285  1.00  0.00     0.245 C 
HETATM    9  O3  UNL     1      17.006   5.738  -6.170  1.00  0.00    -0.271 OA
HETATM   10  N4  UNL     1      19.249   6.068  -5.629  1.00  0.00    -0.314 N 
HETATM   11  C28 UNL     1      19.605   6.880  -6.780  1.00  0.00     0.202 C 
HETATM   12  N5  UNL     1      19.491   6.088  -8.002  1.00  0.00    -0.367 N 
HETATM   13  C29 UNL     1      21.757   6.331  -7.669  1.00  0.00    -0.018 A 
HETATM   14  C30 UNL     1      23.094   5.936  -7.812  1.00  0.00     0.010 A 
HETATM   15  C31 UNL     1      23.430   5.030  -8.832  1.00  0.00     0.001 A 
HETATM   16  C32 UNL     1      20.785   5.754  -8.446  1.00  0.00     0.036 A 
HETATM   17  C33 UNL     1      21.086   4.837  -9.454  1.00  0.00     0.030 A 
HETATM   18  C34 UNL     1      22.428   4.490  -9.659  1.00  0.00     0.002 A 
HETATM   19  H22 UNL     1      18.467   5.520  -1.911  1.00  0.00     0.163 HD
HETATM   20  H31 UNL     1      18.601   5.696  -8.387  1.00  0.00     0.161 HD
ENDROOT
BRANCH   1  21
HETATM   21  C14 UNL     1      21.423   8.759  -6.821  1.00  0.00     0.045 C 
HETATM   22  C7  UNL     1      20.106   9.575  -7.077  1.00  0.00     0.202 C 
HETATM   23  N1  UNL     1      20.377  10.398  -8.244  1.00  0.00    -0.314 N 
HETATM   24  N2  UNL     1      19.912  10.425  -5.907  1.00  0.00    -0.367 N 
HETATM   25  C6  UNL     1      19.365  11.111  -8.968  1.00  0.00     0.245 C 
HETATM   26  C36 UNL     1      21.761  10.335  -8.680  1.00  0.00     0.182 C 
HETATM   27  C1  UNL     1      19.699  11.690 -10.328  1.00  0.00     0.177 C 
HETATM   28  O1  UNL     1      18.244  11.321  -8.433  1.00  0.00    -0.271 OA
HETATM   29  N6  UNL     1      20.767  10.896 -10.950  1.00  0.00    -0.346 N 
HETATM   30  C37 UNL     1      21.845  10.349 -10.181  1.00  0.00     0.241 C 
HETATM   31  H38 UNL     1      20.796  10.761 -11.987  1.00  0.00     0.163 HD
HETATM   32  O4  UNL     1      22.874   9.919 -10.766  1.00  0.00    -0.271 OA
HETATM   33  C35 UNL     1      22.322   9.058  -8.051  1.00  0.00     0.054 C 
HETATM   34  C8  UNL     1      21.057  10.343  -5.092  1.00  0.00     0.036 A 
HETATM   35  H15 UNL     1      19.127  11.105  -5.776  1.00  0.00     0.161 HD
HETATM   36  C9  UNL     1      21.334  11.159  -3.995  1.00  0.00     0.030 A 
HETATM   37  C13 UNL     1      21.971   9.444  -5.583  1.00  0.00    -0.018 A 
HETATM   38  C10 UNL     1      22.595  11.058  -3.391  1.00  0.00     0.002 A 
HETATM   39  C11 UNL     1      23.562  10.184  -3.920  1.00  0.00     0.001 A 
HETATM   40  C12 UNL     1      23.262   9.392  -5.040  1.00  0.00     0.010 A 
BRANCH  27  41
HETATM   41  C2  UNL     1      18.466  11.760 -11.275  1.00  0.00     0.038 C 
BRANCH  41  42
HETATM   42  C3  UNL     1      17.960  13.203 -11.530  1.00  0.00    -0.020 C 
HETATM   43  C4  UNL     1      18.689  14.248 -10.672  1.00  0.00     0.009 C 
HETATM   44  C5  UNL     1      18.106  13.557 -13.014  1.00  0.00     0.009 C 
ENDBRANCH  41  42
ENDBRANCH  27  41
ENDBRANCH   1  21
BRANCH   7  45
HETATM   45  C20 UNL     1      16.253   5.957  -3.387  1.00  0.00     0.073 C 
BRANCH  45  46
HETATM   46  C21 UNL     1      15.460   5.070  -2.453  1.00  0.00    -0.056 A 
HETATM   47  C22 UNL     1      14.647   5.633  -1.452  1.00  0.00     0.007 A 
HETATM   48  C23 UNL     1      13.919   4.811  -0.589  1.00  0.00     0.001 A 
HETATM   49  C24 UNL     1      13.996   3.421  -0.713  1.00  0.00     0.000 A 
HETATM   50  C25 UNL     1      14.811   2.852  -1.697  1.00  0.00     0.001 A 
HETATM   51  C26 UNL     1      15.534   3.672  -2.568  1.00  0.00     0.007 A 
ENDBRANCH  45  46
ENDBRANCH   7  45
TORSDOF 5
ENDMDL
MODEL 2
REMARK VINA RESULT:     -10.8      2.524      4.489
REMARK  5 active torsions:
REMARK  status: ('A' for Active; 'I' for Inactive)
REMARK    1  A    between atoms: C1_1  and  C2_2 
REMARK    2  A    between atoms: C2_2  and  C3_3 
REMARK    3  A    between atoms: C14_17  and  C15_18 
REMARK    4  A    between atoms: C19_24  and  C20_25 
REMARK    5  A    between atoms: C20_25  and  C21_26 
ROOT
HETATM    1  C15 UNL     1      19.988   8.224  -6.191  1.00  0.00     0.045 C 
HETATM    2  C16 UNL     1      18.646   8.971  -5.960  1.00  0.00     0.054 C 
HETATM    3  C17 UNL     1      18.100   8.458  -4.626  1.00  0.00     0.182 C 
HETATM    4  C18 UNL     1      16.606   8.319  -4.601  1.00  0.00     0.241 C 
HETATM    5  O2  UNL     1      15.880   9.197  -5.142  1.00  0.00    -0.271 OA
HETATM    6  N3  UNL     1      15.995   7.233  -3.894  1.00  0.00    -0.346 N 
HETATM    7  C19 UNL     1      16.756   6.252  -3.108  1.00  0.00     0.181 C 
HETATM    8  C27 UNL     1      18.197   6.171  -3.552  1.00  0.00     0.245 C 
HETATM    9  O3  UNL     1      18.933   5.235  -3.138  1.00  0.00    -0.271 OA
HETATM   10  N4  UNL     1      18.742   7.175  -4.415  1.00  0.00    -0.314 N 
HETATM   11  C28 UNL     1      19.925   6.980  -5.235  1.00  0.00     0.202 C 
HETATM   12  N5  UNL     1      21.123   7.039  -4.402  1.00  0.00    -0.367 N 
HETATM   13  C29 UNL     1      21.143   9.007  -5.598  1.00  0.00    -0.018 A 
HETATM   14  C30 UNL     1      21.496  10.348  -5.797  1.00  0.00     0.010 A 
HETATM   15  C31 UNL     1      22.566  10.886  -5.063  1.00  0.00     0.001 A 
HETATM   16  C32 UNL     1      21.766   8.272  -4.622  1.00  0.00     0.036 A 
HETATM   17  C33 UNL     1      22.819   8.785  -3.863  1.00  0.00     0.030 A 
HETATM   18  C34 UNL     1      23.234  10.102  -4.104  1.00  0.00     0.002 A 
HETATM   19  H22 UNL     1      14.954   7.250  -3.797  1.00  0.00     0.163 HD
HETATM   20  H31 UNL     1      21.370   6.355  -3.650  1.00  0.00     0.161 HD
ENDROOT
BRANCH   1  21
HETATM   21  C14 UNL     1      20.226   7.797  -7.700  1.00  0.00     0.045 C 
HETATM   22  C7  UNL     1      19.581   8.817  -8.706  1.00  0.00     0.202 C 
HETATM   23  N1  UNL     1      18.832   8.010  -9.655  1.00  0.00    -0.314 N 
HETATM   24  N2  UNL     1      20.687   9.483  -9.386  1.00  0.00    -0.367 N 
HETATM   25  C6  UNL     1      17.891   8.551 -10.591  1.00  0.00     0.245 C 
HETATM   26  C36 UNL     1      19.044   6.583  -9.485  1.00  0.00     0.182 C 
HETATM   27  C1  UNL     1      16.954   7.611 -11.323  1.00  0.00     0.177 C 
HETATM   28  O1  UNL     1      17.911   9.783 -10.858  1.00  0.00    -0.271 OA
HETATM   29  N6  UNL     1      16.722   6.414 -10.504  1.00  0.00    -0.346 N 
HETATM   30  C37 UNL     1      17.765   5.827  -9.716  1.00  0.00     0.241 C 
HETATM   31  H38 UNL     1      15.799   5.925 -10.525  1.00  0.00     0.163 HD
HETATM   32  O4  UNL     1      17.619   4.665  -9.252  1.00  0.00    -0.271 OA
HETATM   33  C35 UNL     1      19.596   6.426  -8.067  1.00  0.00     0.054 C 
HETATM   34  C8  UNL     1      21.889   8.836  -9.038  1.00  0.00     0.036 A 
HETATM   35  H15 UNL     1      20.590  10.210 -10.131  1.00  0.00     0.161 HD
HETATM   36  C9  UNL     1      23.130   9.050  -9.636  1.00  0.00     0.030 A 
HETATM   37  C13 UNL     1      21.685   7.840  -8.116  1.00  0.00    -0.018 A 
HETATM   38  C10 UNL     1      24.193   8.206  -9.286  1.00  0.00     0.002 A 
HETATM   39  C11 UNL     1      23.984   7.145  -8.389  1.00  0.00     0.001 A 
HETATM   40  C12 UNL     1      22.717   6.938  -7.820  1.00  0.00     0.010 A 
BRANCH  27  41
HETATM   41  C2  UNL     1      15.596   8.277 -11.691  1.00  0.00     0.038 C 
BRANCH  41  42
HETATM   42  C3  UNL     1      14.627   8.418 -10.490  1.00  0.00    -0.020 C 
HETATM   43  C4  UNL     1      14.433   9.877 -10.053  1.00  0.00     0.009 C 
HETATM   44  C5  UNL     1      13.270   7.795 -10.833  1.00  0.00     0.009 C 
ENDBRANCH  41  42
ENDBRANCH  27  41
ENDBRANCH   1  21
BRANCH   7  45
HETATM   45  C20 UNL     1      16.064   4.872  -3.174  1.00  0.00     0.073 C 
BRANCH  45  46
HETATM   46  C21 UNL     1      15.115   4.630  -2.022  1.00  0.00    -0.056 A 
HETATM   47  C22 UNL     1      14.480   3.384  -1.868  1.00  0.00     0.007 A 
HETATM   48  C23 UNL     1      13.601   3.167  -0.804  1.00  0.00     0.001 A 
HETATM   49  C24 UNL     1      13.344   4.188   0.113  1.00  0.00     0.000 A 
HETATM   50  C25 UNL     1      13.960   5.434  -0.038  1.00  0.00     0.001 A 
HETATM   51  C26 UNL     1      14.847   5.653  -1.096  1.00  0.00     0.007 A 
ENDBRANCH  45  46
ENDBRANCH   7  45
TORSDOF 5
ENDMDL
MODEL 3
REMARK VINA RESULT:     -10.6      2.729      4.981
REMARK  5 active torsions:
REMARK  status: ('A' for Active; 'I' for Inactive)
REMARK    1  A    between atoms: C1_1  and  C2_2 
REMARK    2  A    between atoms: C2_2  and  C3_3 
REMARK    3  A    between atoms: C14_17  and  C15_18 
REMARK    4  A    between atoms: C19_24  and  C20_25 
REMARK    5  A    between atoms: C20_25  and  C21_26 
ROOT
HETATM    1  C15 UNL     1      20.172   7.854  -6.121  1.00  0.00     0.045 C 
HETATM    2  C16 UNL     1      18.851   8.649  -5.939  1.00  0.00     0.054 C 
HETATM    3  C17 UNL     1      18.287   8.227  -4.581  1.00  0.00     0.182 C 
HETATM    4  C18 UNL     1      16.789   8.131  -4.556  1.00  0.00     0.241 C 
HETATM    5  O2  UNL     1      16.089   8.997  -5.149  1.00  0.00    -0.271 OA
HETATM    6  N3  UNL     1      16.145   7.104  -3.792  1.00  0.00    -0.346 N 
HETATM    7  C19 UNL     1      16.876   6.148  -2.949  1.00  0.00     0.181 C 
HETATM    8  C27 UNL     1      18.317   6.003  -3.380  1.00  0.00     0.245 C 
HETATM    9  O3  UNL     1      19.024   5.071  -2.911  1.00  0.00    -0.271 OA
HETATM   10  N4  UNL     1      18.892   6.941  -4.295  1.00  0.00    -0.314 N 
HETATM   11  C28 UNL     1      20.072   6.668  -5.097  1.00  0.00     0.202 C 
HETATM   12  N5  UNL     1      21.268   6.740  -4.262  1.00  0.00    -0.367 N 
HETATM   13  C29 UNL     1      21.346   8.637  -5.567  1.00  0.00    -0.018 A 
HETATM   14  C30 UNL     1      21.738   9.955  -5.839  1.00  0.00     0.010 A 
HETATM   15  C31 UNL     1      22.819  10.504  -5.131  1.00  0.00     0.001 A 
HETATM   16  C32 UNL     1      21.946   7.941  -4.548  1.00  0.00     0.036 A 
HETATM   17  C33 UNL     1      23.010   8.467  -3.813  1.00  0.00     0.030 A 
HETATM   18  C34 UNL     1      23.462   9.757  -4.126  1.00  0.00     0.002 A 
HETATM   19  H22 UNL     1      15.105   7.154  -3.701  1.00  0.00     0.163 HD
HETATM   20  H31 UNL     1      21.493   6.094  -3.473  1.00  0.00     0.161 HD
ENDROOT
BRANCH   1  21
HETATM   21  C14 UNL     1      20.404   7.337  -7.603  1.00  0.00     0.045 C 
HETATM   22  C7  UNL     1      19.421   8.018  -8.621  1.00  0.00     0.202 C 
HETATM   23  N1  UNL     1      18.860   6.932  -9.408  1.00  0.00    -0.314 N 
HETATM   24  N2  UNL     1      20.237   8.877  -9.472  1.00  0.00    -0.367 N 
HETATM   25  C6  UNL     1      17.735   7.082 -10.284  1.00  0.00     0.245 C 
HETATM   26  C36 UNL     1      19.480   5.647  -9.135  1.00  0.00     0.182 C 
HETATM   27  C1  UNL     1      17.048   5.844 -10.824  1.00  0.00     0.177 C 
HETATM   28  O1  UNL     1      17.384   8.233 -10.660  1.00  0.00    -0.271 OA
HETATM   29  N6  UNL     1      17.230   4.732  -9.880  1.00  0.00    -0.346 N 
HETATM   30  C37 UNL     1      18.454   4.549  -9.159  1.00  0.00     0.241 C 
HETATM   31  H38 UNL     1      16.484   4.009  -9.759  1.00  0.00     0.163 HD
HETATM   32  O4  UNL     1      18.679   3.452  -8.580  1.00  0.00    -0.271 OA
HETATM   33  C35 UNL     1      20.163   5.812  -7.776  1.00  0.00     0.054 C 
HETATM   34  C8  UNL     1      21.596   8.629  -9.198  1.00  0.00     0.036 A 
HETATM   35  H15 UNL     1      19.880   9.458 -10.265  1.00  0.00     0.161 HD
HETATM   36  C9  UNL     1      22.675   9.104  -9.943  1.00  0.00     0.030 A 
HETATM   37  C13 UNL     1      21.754   7.729  -8.174  1.00  0.00    -0.018 A 
HETATM   38  C10 UNL     1      23.958   8.629  -9.634  1.00  0.00     0.002 A 
HETATM   39  C11 UNL     1      24.128   7.662  -8.627  1.00  0.00     0.001 A 
HETATM   40  C12 UNL     1      23.019   7.185  -7.910  1.00  0.00     0.010 A 
BRANCH  27  41
HETATM   41  C2  UNL     1      15.533   6.065 -11.103  1.00  0.00     0.038 C 
BRANCH  41  42
HETATM   42  C3  UNL     1      14.618   5.004 -10.442  1.00  0.00    -0.020 C 
HETATM   43  C4  UNL     1      13.448   5.629  -9.667  1.00  0.00     0.009 C 
HETATM   44  C5  UNL     1      14.079   4.039 -11.504  1.00  0.00     0.009 C 
ENDBRANCH  41  42
ENDBRANCH  27  41
ENDBRANCH   1  21
BRANCH   7  45
HETATM   45  C20 UNL     1      16.147   4.785  -2.941  1.00  0.00     0.073 C 
BRANCH  45  46
HETATM   46  C21 UNL     1      15.130   4.666  -1.827  1.00  0.00    -0.056 A 
HETATM   47  C22 UNL     1      14.944   5.719  -0.914  1.00  0.00     0.007 A 
HETATM   48  C23 UNL     1      14.007   5.603   0.115  1.00  0.00     0.001 A 
HETATM   49  C24 UNL     1      13.249   4.436   0.246  1.00  0.00     0.000 A 
HETATM   50  C25 UNL     1      13.436   3.379  -0.649  1.00  0.00     0.001 A 
HETATM   51  C26 UNL     1      14.366   3.494  -1.686  1.00  0.00     0.007 A 
ENDBRANCH  45  46
ENDBRANCH   7  45
TORSDOF 5
ENDMDL
MODEL 4
REMARK VINA RESULT:     -10.6      1.768      3.909
REMARK  5 active torsions:
REMARK  status: ('A' for Active; 'I' for Inactive)
REMARK    1  A    between atoms: C1_1  and  C2_2 
REMARK    2  A    between atoms: C2_2  and  C3_3 
REMARK    3  A    between atoms: C14_17  and  C15_18 
REMARK    4  A    between atoms: C19_24  and  C20_25 
REMARK    5  A    between atoms: C20_25  and  C21_26 
ROOT
HETATM    1  C15 UNL     1      20.366   8.335  -5.907  1.00  0.00     0.045 C 
HETATM    2  C16 UNL     1      19.032   9.087  -5.647  1.00  0.00     0.054 C 
HETATM    3  C17 UNL     1      18.438   8.471  -4.379  1.00  0.00     0.182 C 
HETATM    4  C18 UNL     1      16.941   8.362  -4.408  1.00  0.00     0.241 C 
HETATM    5  O2  UNL     1      16.248   9.300  -4.889  1.00  0.00    -0.271 OA
HETATM    6  N3  UNL     1      16.289   7.232  -3.817  1.00  0.00    -0.346 N 
HETATM    7  C19 UNL     1      17.009   6.169  -3.100  1.00  0.00     0.181 C 
HETATM    8  C27 UNL     1      18.461   6.097  -3.510  1.00  0.00     0.245 C 
HETATM    9  O3  UNL     1      19.166   5.112  -3.160  1.00  0.00    -0.271 OA
HETATM   10  N4  UNL     1      19.049   7.161  -4.265  1.00  0.00    -0.314 N 
HETATM   11  C28 UNL     1      20.252   7.014  -5.067  1.00  0.00     0.202 C 
HETATM   12  N5  UNL     1      21.426   6.974  -4.199  1.00  0.00    -0.367 N 
HETATM   13  C29 UNL     1      21.517   9.038  -5.215  1.00  0.00    -0.018 A 
HETATM   14  C30 UNL     1      21.902  10.384  -5.285  1.00  0.00     0.010 A 
HETATM   15  C31 UNL     1      22.959  10.833  -4.477  1.00  0.00     0.001 A 
HETATM   16  C32 UNL     1      22.098   8.207  -4.291  1.00  0.00     0.036 A 
HETATM   17  C33 UNL     1      23.137   8.629  -3.461  1.00  0.00     0.030 A 
HETATM   18  C34 UNL     1      23.585   9.953  -3.574  1.00  0.00     0.002 A 
HETATM   19  H22 UNL     1      15.246   7.262  -3.747  1.00  0.00     0.163 HD
HETATM   20  H31 UNL     1      21.638   6.221  -3.505  1.00  0.00     0.161 HD
ENDROOT
BRANCH   1  21
HETATM   21  C14 UNL     1      20.640   8.038  -7.441  1.00  0.00     0.045 C 
HETATM   22  C7  UNL     1      21.275   9.275  -8.172  1.00  0.00     0.202 C 
HETATM   23  N1  UNL     1      20.497   9.452  -9.387  1.00  0.00    -0.314 N 
HETATM   24  N2  UNL     1      22.643   8.897  -8.510  1.00  0.00    -0.367 N 
HETATM   25  C6  UNL     1      20.578  10.614 -10.223  1.00  0.00     0.245 C 
HETATM   26  C36 UNL     1      19.539   8.384  -9.615  1.00  0.00     0.182 C 
HETATM   27  C1  UNL     1      19.524  10.833 -11.289  1.00  0.00     0.177 C 
HETATM   28  O1  UNL     1      21.566  11.391 -10.119  1.00  0.00    -0.271 OA
HETATM   29  N6  UNL     1      18.270  10.186 -10.879  1.00  0.00    -0.346 N 
HETATM   30  C37 UNL     1      18.261   8.931 -10.187  1.00  0.00     0.241 C 
HETATM   31  H38 UNL     1      17.347  10.602 -11.139  1.00  0.00     0.163 HD
HETATM   32  O4  UNL     1      17.189   8.276 -10.097  1.00  0.00    -0.271 OA
HETATM   33  C35 UNL     1      19.356   7.713  -8.252  1.00  0.00     0.054 C 
HETATM   34  C8  UNL     1      22.816   7.527  -8.238  1.00  0.00     0.036 A 
HETATM   35  H15 UNL     1      23.328   9.500  -9.021  1.00  0.00     0.161 HD
HETATM   36  C9  UNL     1      23.916   6.756  -8.615  1.00  0.00     0.030 A 
HETATM   37  C13 UNL     1      21.696   6.973  -7.669  1.00  0.00    -0.018 A 
HETATM   38  C10 UNL     1      23.858   5.370  -8.412  1.00  0.00     0.002 A 
HETATM   39  C11 UNL     1      22.695   4.782  -7.885  1.00  0.00     0.001 A 
HETATM   40  C12 UNL     1      21.594   5.581  -7.538  1.00  0.00     0.010 A 
BRANCH  27  41
HETATM   41  C2  UNL     1      19.274  12.339 -11.592  1.00  0.00     0.038 C 
BRANCH  41  42
HETATM   42  C3  UNL     1      18.538  13.088 -10.452  1.00  0.00    -0.020 C 
HETATM   43  C4  UNL     1      19.411  14.163  -9.789  1.00  0.00     0.009 C 
HETATM   44  C5  UNL     1      17.249  13.723 -10.986  1.00  0.00     0.009 C 
ENDBRANCH  41  42
ENDBRANCH  27  41
ENDBRANCH   1  21
BRANCH   7  45
HETATM   45  C20 UNL     1      16.293   4.815  -3.307  1.00  0.00     0.073 C 
BRANCH  45  46
HETATM   46  C21 UNL     1      15.288   4.505  -2.221  1.00  0.00    -0.056 A 
HETATM   47  C22 UNL     1      14.805   5.527  -1.382  1.00  0.00     0.007 A 
HETATM   48  C23 UNL     1      13.879   5.236  -0.377  1.00  0.00     0.001 A 
HETATM   49  C24 UNL     1      13.429   3.926  -0.196  1.00  0.00     0.000 A 
HETATM   50  C25 UNL     1      13.912   2.902  -1.016  1.00  0.00     0.001 A 
HETATM   51  C26 UNL     1      14.832   3.190  -2.029  1.00  0.00     0.007 A 
ENDBRANCH  45  46
ENDBRANCH   7  45
TORSDOF 5
ENDMDL
MODEL 5
REMARK VINA RESULT:     -10.5      1.807      2.231
REMARK  5 active torsions:
REMARK  status: ('A' for Active; 'I' for Inactive)
REMARK    1  A    between atoms: C1_1  and  C2_2 
REMARK    2  A    between atoms: C2_2  and  C3_3 
REMARK    3  A    between atoms: C14_17  and  C15_18 
REMARK    4  A    between atoms: C19_24  and  C20_25 
REMARK    5  A    between atoms: C20_25  and  C21_26 
ROOT
HETATM    1  C15 UNL     1      20.741   6.998  -6.216  1.00  0.00     0.045 C 
HETATM    2  C16 UNL     1      21.128   6.531  -4.786  1.00  0.00     0.054 C 
HETATM    3  C17 UNL     1      20.327   5.254  -4.527  1.00  0.00     0.182 C 
HETATM    4  C18 UNL     1      19.853   5.119  -3.109  1.00  0.00     0.241 C 
HETATM    5  O2  UNL     1      20.611   5.445  -2.155  1.00  0.00    -0.271 OA
HETATM    6  N3  UNL     1      18.571   4.545  -2.829  1.00  0.00    -0.346 N 
HETATM    7  C19 UNL     1      17.687   3.999  -3.869  1.00  0.00     0.181 C 
HETATM    8  C27 UNL     1      17.994   4.576  -5.230  1.00  0.00     0.245 C 
HETATM    9  O3  UNL     1      17.200   4.387  -6.190  1.00  0.00    -0.271 OA
HETATM   10  N4  UNL     1      19.205   5.311  -5.443  1.00  0.00    -0.314 N 
HETATM   11  C28 UNL     1      19.396   6.254  -6.532  1.00  0.00     0.202 C 
HETATM   12  N5  UNL     1      19.607   5.532  -7.784  1.00  0.00    -0.367 N 
HETATM   13  C29 UNL     1      21.675   6.392  -7.246  1.00  0.00    -0.018 A 
HETATM   14  C30 UNL     1      23.076   6.403  -7.284  1.00  0.00     0.010 A 
HETATM   15  C31 UNL     1      23.734   5.690  -8.299  1.00  0.00     0.001 A 
HETATM   16  C32 UNL     1      20.971   5.607  -8.123  1.00  0.00     0.036 A 
HETATM   17  C33 UNL     1      21.598   4.872  -9.130  1.00  0.00     0.030 A 
HETATM   18  C34 UNL     1      22.996   4.934  -9.229  1.00  0.00     0.002 A 
HETATM   19  H22 UNL     1      18.339   4.354  -1.828  1.00  0.00     0.163 HD
HETATM   20  H31 UNL     1      18.899   4.926  -8.258  1.00  0.00     0.161 HD
ENDROOT
BRANCH   1  21
HETATM   21  C14 UNL     1      20.592   8.572  -6.352  1.00  0.00     0.045 C 
HETATM   22  C7  UNL     1      19.156   9.061  -5.944  1.00  0.00     0.202 C 
HETATM   23  N1  UNL     1      18.725   9.943  -7.016  1.00  0.00    -0.314 N 
HETATM   24  N2  UNL     1      19.314   9.822  -4.709  1.00  0.00    -0.367 N 
HETATM   25  C6  UNL     1      17.378  10.412  -7.168  1.00  0.00     0.245 C 
HETATM   26  C36 UNL     1      19.768  10.214  -7.989  1.00  0.00     0.182 C 
HETATM   27  C1  UNL     1      16.969  11.075  -8.468  1.00  0.00     0.177 C 
HETATM   28  O1  UNL     1      16.579  10.344  -6.196  1.00  0.00    -0.271 OA
HETATM   29  N6  UNL     1      17.804  10.563  -9.563  1.00  0.00    -0.346 N 
HETATM   30  C37 UNL     1      19.195  10.272  -9.378  1.00  0.00     0.241 C 
HETATM   31  H38 UNL     1      17.412  10.456 -10.526  1.00  0.00     0.163 HD
HETATM   32  O4  UNL     1      19.937  10.105 -10.382  1.00  0.00    -0.271 OA
HETATM   33  C35 UNL     1      20.793   9.094  -7.801  1.00  0.00     0.054 C 
HETATM   34  C8  UNL     1      20.688   9.998  -4.457  1.00  0.00     0.036 A 
HETATM   35  H15 UNL     1      18.541  10.297  -4.188  1.00  0.00     0.161 HD
HETATM   36  C9  UNL     1      21.235  10.838  -3.487  1.00  0.00     0.030 A 
HETATM   37  C13 UNL     1      21.465   9.347  -5.382  1.00  0.00    -0.018 A 
HETATM   38  C10 UNL     1      22.625  11.025  -3.476  1.00  0.00     0.002 A 
HETATM   39  C11 UNL     1      23.427  10.412  -4.454  1.00  0.00     0.001 A 
HETATM   40  C12 UNL     1      22.845   9.590  -5.433  1.00  0.00     0.010 A 
BRANCH  27  41
HETATM   41  C2  UNL     1      15.463  10.870  -8.804  1.00  0.00     0.038 C 
BRANCH  41  42
HETATM   42  C3  UNL     1      15.210  10.399 -10.258  1.00  0.00    -0.020 C 
HETATM   43  C4  UNL     1      14.487   9.045 -10.326  1.00  0.00     0.009 C 
HETATM   44  C5  UNL     1      14.402  11.456 -11.020  1.00  0.00     0.009 C 
ENDBRANCH  41  42
ENDBRANCH  27  41
ENDBRANCH   1  21
BRANCH   7  45
HETATM   45  C20 UNL     1      16.209   4.225  -3.477  1.00  0.00     0.073 C 
BRANCH  45  46
HETATM   46  C21 UNL     1      16.046   4.800  -2.088  1.00  0.00    -0.056 A 
HETATM   47  C22 UNL     1      16.276   4.001  -0.953  1.00  0.00     0.007 A 
HETATM   48  C23 UNL     1      16.121   4.534   0.328  1.00  0.00     0.001 A 
HETATM   49  C24 UNL     1      15.733   5.867   0.491  1.00  0.00     0.000 A 
HETATM   50  C25 UNL     1      15.490   6.665  -0.630  1.00  0.00     0.001 A 
HETATM   51  C26 UNL     1      15.653   6.138  -1.914  1.00  0.00     0.007 A 
ENDBRANCH  45  46
ENDBRANCH   7  45
TORSDOF 5
ENDMDL
MODEL 6
REMARK VINA RESULT:     -10.5      2.729      8.367
REMARK  5 active torsions:
REMARK  status: ('A' for Active; 'I' for Inactive)
REMARK    1  A    between atoms: C1_1  and  C2_2 
REMARK    2  A    between atoms: C2_2  and  C3_3 
REMARK    3  A    between atoms: C14_17  and  C15_18 
REMARK    4  A    between atoms: C19_24  and  C20_25 
REMARK    5  A    between atoms: C20_25  and  C21_26 
ROOT
HETATM    1  C15 UNL     1      18.195   6.245  -6.954  1.00  0.00     0.045 C 
HETATM    2  C16 UNL     1      17.539   7.423  -6.184  1.00  0.00     0.054 C 
HETATM    3  C17 UNL     1      18.082   8.702  -6.825  1.00  0.00     0.182 C 
HETATM    4  C18 UNL     1      18.321   9.812  -5.843  1.00  0.00     0.241 C 
HETATM    5  O2  UNL     1      17.495  10.021  -4.913  1.00  0.00    -0.271 OA
HETATM    6  N3  UNL     1      19.442  10.688  -6.004  1.00  0.00    -0.346 N 
HETATM    7  C19 UNL     1      20.368  10.613  -7.143  1.00  0.00     0.181 C 
HETATM    8  C27 UNL     1      20.354   9.249  -7.792  1.00  0.00     0.245 C 
HETATM    9  O3  UNL     1      21.237   8.943  -8.637  1.00  0.00    -0.271 OA
HETATM   10  N4  UNL     1      19.318   8.312  -7.474  1.00  0.00    -0.314 N 
HETATM   11  C28 UNL     1      19.437   6.878  -7.676  1.00  0.00     0.202 C 
HETATM   12  N5  UNL     1      19.296   6.562  -9.095  1.00  0.00    -0.367 N 
HETATM   13  C29 UNL     1      17.335   5.832  -8.132  1.00  0.00    -0.018 A 
HETATM   14  C30 UNL     1      15.974   5.500  -8.159  1.00  0.00     0.010 A 
HETATM   15  C31 UNL     1      15.363   5.234  -9.395  1.00  0.00     0.001 A 
HETATM   16  C32 UNL     1      18.024   5.998  -9.307  1.00  0.00     0.036 A 
HETATM   17  C33 UNL     1      17.438   5.760 -10.551  1.00  0.00     0.030 A 
HETATM   18  C34 UNL     1      16.097   5.352 -10.590  1.00  0.00     0.002 A 
HETATM   19  H22 UNL     1      19.495  11.521  -5.374  1.00  0.00     0.163 HD
HETATM   20  H31 UNL     1      19.959   6.856  -9.848  1.00  0.00     0.161 HD
ENDROOT
BRANCH   1  21
HETATM   21  C14 UNL     1      18.611   5.029  -6.021  1.00  0.00     0.045 C 
HETATM   22  C7  UNL     1      17.385   4.459  -5.223  1.00  0.00     0.202 C 
HETATM   23  N1  UNL     1      17.831   4.354  -3.843  1.00  0.00    -0.314 N 
HETATM   24  N2  UNL     1      17.123   3.128  -5.761  1.00  0.00    -0.367 N 
HETATM   25  C6  UNL     1      16.952   4.113  -2.738  1.00  0.00     0.245 C 
HETATM   26  C36 UNL     1      19.247   4.634  -3.677  1.00  0.00     0.182 C 
HETATM   27  C1  UNL     1      17.465   4.316  -1.326  1.00  0.00     0.177 C 
HETATM   28  O1  UNL     1      15.796   3.655  -2.946  1.00  0.00    -0.271 OA
HETATM   29  N6  UNL     1      18.539   5.319  -1.335  1.00  0.00    -0.346 N 
HETATM   30  C37 UNL     1      19.491   5.393  -2.403  1.00  0.00     0.241 C 
HETATM   31  H38 UNL     1      18.669   5.967  -0.525  1.00  0.00     0.163 HD
HETATM   32  O4  UNL     1      20.546   6.065  -2.253  1.00  0.00    -0.271 OA
HETATM   33  C35 UNL     1      19.653   5.407  -4.934  1.00  0.00     0.054 C 
HETATM   34  C8  UNL     1      18.168   2.781  -6.640  1.00  0.00     0.036 A 
HETATM   35  H15 UNL     1      16.376   2.477  -5.428  1.00  0.00     0.161 HD
HETATM   36  C9  UNL     1      18.380   1.518  -7.191  1.00  0.00     0.030 A 
HETATM   37  C13 UNL     1      19.068   3.806  -6.794  1.00  0.00    -0.018 A 
HETATM   38  C10 UNL     1      19.560   1.296  -7.915  1.00  0.00     0.002 A 
HETATM   39  C11 UNL     1      20.518   2.319  -8.030  1.00  0.00     0.001 A 
HETATM   40  C12 UNL     1      20.288   3.574  -7.443  1.00  0.00     0.010 A 
BRANCH  27  41
HETATM   41  C2  UNL     1      16.346   4.740  -0.331  1.00  0.00     0.038 C 
BRANCH  41  42
HETATM   42  C3  UNL     1      15.922   6.224  -0.469  1.00  0.00    -0.020 C 
HETATM   43  C4  UNL     1      14.526   6.386  -1.089  1.00  0.00     0.009 C 
HETATM   44  C5  UNL     1      15.964   6.913   0.900  1.00  0.00     0.009 C 
ENDBRANCH  41  42
ENDBRANCH  27  41
ENDBRANCH   1  21
BRANCH   7  45
HETATM   45  C20 UNL     1      21.791  11.013  -6.694  1.00  0.00     0.073 C 
BRANCH  45  46
HETATM   46  C21 UNL     1      22.264  10.250  -5.477  1.00  0.00    -0.056 A 
HETATM   47  C22 UNL     1      22.002  10.737  -4.183  1.00  0.00     0.007 A 
HETATM   48  C23 UNL     1      22.443  10.031  -3.062  1.00  0.00     0.001 A 
HETATM   49  C24 UNL     1      23.151   8.836  -3.218  1.00  0.00     0.000 A 
HETATM   50  C25 UNL     1      23.427   8.351  -4.500  1.00  0.00     0.001 A 
HETATM   51  C26 UNL     1      22.979   9.049  -5.625  1.00  0.00     0.007 A 
ENDBRANCH  45  46
ENDBRANCH   7  45
TORSDOF 5
ENDMDL
MODEL 7
REMARK VINA RESULT:     -10.4      2.623      3.597
REMARK  5 active torsions:
REMARK  status: ('A' for Active; 'I' for Inactive)
REMARK    1  A    between atoms: C1_1  and  C2_2 
REMARK    2  A    between atoms: C2_2  and  C3_3 
REMARK    3  A    between atoms: C14_17  and  C15_18 
REMARK    4  A    between atoms: C19_24  and  C20_25 
REMARK    5  A    between atoms: C20_25  and  C21_26 
ROOT
HETATM    1  C15 UNL     1      19.564   6.645  -5.723  1.00  0.00     0.045 C 
HETATM    2  C16 UNL     1      19.878   5.202  -5.243  1.00  0.00     0.054 C 
HETATM    3  C17 UNL     1      18.716   4.796  -4.335  1.00  0.00     0.182 C 
HETATM    4  C18 UNL     1      19.133   3.955  -3.163  1.00  0.00     0.241 C 
HETATM    5  O2  UNL     1      20.002   3.052  -3.311  1.00  0.00    -0.271 OA
HETATM    6  N3  UNL     1      18.492   4.118  -1.893  1.00  0.00    -0.346 N 
HETATM    7  C19 UNL     1      17.367   5.038  -1.670  1.00  0.00     0.181 C 
HETATM    8  C27 UNL     1      17.325   6.138  -2.705  1.00  0.00     0.245 C 
HETATM    9  O3  UNL     1      16.564   7.129  -2.540  1.00  0.00    -0.271 OA
HETATM   10  N4  UNL     1      18.121   6.041  -3.891  1.00  0.00    -0.314 N 
HETATM   11  C28 UNL     1      18.494   7.183  -4.708  1.00  0.00     0.202 C 
HETATM   12  N5  UNL     1      17.351   7.619  -5.505  1.00  0.00    -0.367 N 
HETATM   13  C29 UNL     1      18.771   6.617  -7.015  1.00  0.00    -0.018 A 
HETATM   14  C30 UNL     1      19.056   5.946  -8.213  1.00  0.00     0.010 A 
HETATM   15  C31 UNL     1      18.119   5.993  -9.258  1.00  0.00     0.001 A 
HETATM   16  C32 UNL     1      17.549   7.213  -6.838  1.00  0.00     0.036 A 
HETATM   17  C33 UNL     1      16.590   7.259  -7.851  1.00  0.00     0.030 A 
HETATM   18  C34 UNL     1      16.892   6.659  -9.082  1.00  0.00     0.002 A 
HETATM   19  H22 UNL     1      18.725   3.426  -1.145  1.00  0.00     0.163 HD
HETATM   20  H31 UNL     1      16.464   8.017  -5.120  1.00  0.00     0.161 HD
ENDROOT
BRANCH   1  21
HETATM   21  C14 UNL     1      20.841   7.585  -5.789  1.00  0.00     0.045 C 
HETATM   22  C7  UNL     1      20.624   8.798  -6.763  1.00  0.00     0.202 C 
HETATM   23  N1  UNL     1      21.805   8.835  -7.609  1.00  0.00    -0.314 N 
HETATM   24  N2  UNL     1      20.575   9.994  -5.928  1.00  0.00    -0.367 N 
HETATM   25  C6  UNL     1      21.909   9.632  -8.797  1.00  0.00     0.245 C 
HETATM   26  C36 UNL     1      22.834   7.896  -7.199  1.00  0.00     0.182 C 
HETATM   27  C1  UNL     1      23.051   9.377  -9.760  1.00  0.00     0.177 C 
HETATM   28  O1  UNL     1      21.105  10.584  -8.984  1.00  0.00    -0.271 OA
HETATM   29  N6  UNL     1      23.477   7.974  -9.655  1.00  0.00    -0.346 N 
HETATM   30  C37 UNL     1      23.506   7.288  -8.398  1.00  0.00     0.241 C 
HETATM   31  H38 UNL     1      23.829   7.461 -10.495  1.00  0.00     0.163 HD
HETATM   32  O4  UNL     1      24.128   6.197  -8.296  1.00  0.00    -0.271 OA
HETATM   33  C35 UNL     1      22.113   6.871  -6.320  1.00  0.00     0.054 C 
HETATM   34  C8  UNL     1      20.930   9.644  -4.612  1.00  0.00     0.036 A 
HETATM   35  H15 UNL     1      20.457  10.973  -6.279  1.00  0.00     0.161 HD
HETATM   36  C9  UNL     1      21.193  10.539  -3.575  1.00  0.00     0.030 A 
HETATM   37  C13 UNL     1      21.136   8.293  -4.480  1.00  0.00    -0.018 A 
HETATM   38  C10 UNL     1      21.695  10.032  -2.368  1.00  0.00     0.002 A 
HETATM   39  C11 UNL     1      21.967   8.659  -2.240  1.00  0.00     0.001 A 
HETATM   40  C12 UNL     1      21.715   7.784  -3.309  1.00  0.00     0.010 A 
BRANCH  27  41
HETATM   41  C2  UNL     1      22.685   9.715 -11.235  1.00  0.00     0.038 C 
BRANCH  41  42
HETATM   42  C3  UNL     1      22.382   8.466 -12.102  1.00  0.00    -0.020 C 
HETATM   43  C4  UNL     1      20.878   8.187 -12.234  1.00  0.00     0.009 C 
HETATM   44  C5  UNL     1      23.004   8.629 -13.493  1.00  0.00     0.009 C 
ENDBRANCH  41  42
ENDBRANCH  27  41
ENDBRANCH   1  21
BRANCH   7  45
HETATM   45  C20 UNL     1      17.430   5.610  -0.236  1.00  0.00     0.073 C 
BRANCH  45  46
HETATM   46  C21 UNL     1      16.073   6.006   0.303  1.00  0.00    -0.056 A 
HETATM   47  C22 UNL     1      14.991   5.109   0.241  1.00  0.00     0.007 A 
HETATM   48  C23 UNL     1      13.739   5.479   0.736  1.00  0.00     0.001 A 
HETATM   49  C24 UNL     1      13.552   6.746   1.294  1.00  0.00     0.000 A 
HETATM   50  C25 UNL     1      14.618   7.649   1.349  1.00  0.00     0.001 A 
HETATM   51  C26 UNL     1      15.875   7.279   0.863  1.00  0.00     0.007 A 
ENDBRANCH  45  46
ENDBRANCH   7  45
TORSDOF 5
ENDMDL
MODEL 8
REMARK VINA RESULT:     -10.4      2.482      5.931
REMARK  5 active torsions:
REMARK  status: ('A' for Active; 'I' for Inactive)
REMARK    1  A    between atoms: C1_1  and  C2_2 
REMARK    2  A    between atoms: C2_2  and  C3_3 
REMARK    3  A    between atoms: C14_17  and  C15_18 
REMARK    4  A    between atoms: C19_24  and  C20_25 
REMARK    5  A    between atoms: C20_25  and  C21_26 
ROOT
HETATM    1  C15 UNL     1      18.079   8.128  -8.535  1.00  0.00     0.045 C 
HETATM    2  C16 UNL     1      17.695   6.664  -8.879  1.00  0.00     0.054 C 
HETATM    3  C17 UNL     1      16.697   6.225  -7.806  1.00  0.00     0.182 C 
HETATM    4  C18 UNL     1      16.846   4.787  -7.398  1.00  0.00     0.241 C 
HETATM    5  O2  UNL     1      17.078   3.904  -8.268  1.00  0.00    -0.271 OA
HETATM    6  N3  UNL     1      16.646   4.401  -6.033  1.00  0.00    -0.346 N 
HETATM    7  C19 UNL     1      16.224   5.339  -4.983  1.00  0.00     0.181 C 
HETATM    8  C27 UNL     1      16.548   6.770  -5.342  1.00  0.00     0.245 C 
HETATM    9  O3  UNL     1      16.456   7.675  -4.469  1.00  0.00    -0.271 OA
HETATM   10  N4  UNL     1      16.928   7.108  -6.680  1.00  0.00    -0.314 N 
HETATM   11  C28 UNL     1      17.664   8.310  -7.032  1.00  0.00     0.202 C 
HETATM   12  N5  UNL     1      16.775   9.468  -6.986  1.00  0.00    -0.367 N 
HETATM   13  C29 UNL     1      17.146   9.101  -9.229  1.00  0.00    -0.018 A 
HETATM   14  C30 UNL     1      16.802   9.181 -10.585  1.00  0.00     0.010 A 
HETATM   15  C31 UNL     1      15.836  10.118 -10.988  1.00  0.00     0.001 A 
HETATM   16  C32 UNL     1      16.467   9.854  -8.304  1.00  0.00     0.036 A 
HETATM   17  C33 UNL     1      15.490  10.779  -8.672  1.00  0.00     0.030 A 
HETATM   18  C34 UNL     1      15.189  10.925 -10.034  1.00  0.00     0.002 A 
HETATM   19  H22 UNL     1      16.634   3.378  -5.821  1.00  0.00     0.163 HD
HETATM   20  H31 UNL     1      16.316   9.843  -6.125  1.00  0.00     0.161 HD
ENDROOT
BRANCH   1  21
HETATM   21  C14 UNL     1      19.614   8.455  -8.767  1.00  0.00     0.045 C 
HETATM   22  C7  UNL     1      20.539   7.640  -7.793  1.00  0.00     0.202 C 
HETATM   23  N1  UNL     1      21.460   8.611  -7.226  1.00  0.00    -0.314 N 
HETATM   24  N2  UNL     1      21.272   6.687  -8.621  1.00  0.00    -0.367 N 
HETATM   25  C6  UNL     1      22.312   8.340  -6.105  1.00  0.00     0.245 C 
HETATM   26  C36 UNL     1      21.352   9.926  -7.833  1.00  0.00     0.182 C 
HETATM   27  C1  UNL     1      23.007   9.493  -5.409  1.00  0.00     0.177 C 
HETATM   28  O1  UNL     1      22.539   7.147  -5.766  1.00  0.00    -0.271 OA
HETATM   29  N6  UNL     1      22.213  10.718  -5.577  1.00  0.00    -0.346 N 
HETATM   30  C37 UNL     1      21.518  11.003  -6.797  1.00  0.00     0.241 C 
HETATM   31  H38 UNL     1      22.187  11.442  -4.824  1.00  0.00     0.163 HD
HETATM   32  O4  UNL     1      21.083  12.166  -7.010  1.00  0.00    -0.271 OA
HETATM   33  C35 UNL     1      19.981   9.942  -8.512  1.00  0.00     0.054 C 
HETATM   34  C8  UNL     1      21.029   6.981  -9.976  1.00  0.00     0.036 A 
HETATM   35  H15 UNL     1      21.986   6.006  -8.272  1.00  0.00     0.161 HD
HETATM   36  C9  UNL     1      21.704   6.425 -11.062  1.00  0.00     0.030 A 
HETATM   37  C13 UNL     1      20.127   8.006 -10.123  1.00  0.00    -0.018 A 
HETATM   38  C10 UNL     1      21.456   6.948 -12.339  1.00  0.00     0.002 A 
HETATM   39  C11 UNL     1      20.580   8.036 -12.497  1.00  0.00     0.001 A 
HETATM   40  C12 UNL     1      19.932   8.591 -11.381  1.00  0.00     0.010 A 
BRANCH  27  41
HETATM   41  C2  UNL     1      23.259   9.223  -3.897  1.00  0.00     0.038 C 
BRANCH  41  42
HETATM   42  C3  UNL     1      21.959   9.062  -3.069  1.00  0.00    -0.020 C 
HETATM   43  C4  UNL     1      21.860   7.691  -2.383  1.00  0.00     0.009 C 
HETATM   44  C5  UNL     1      21.862  10.175  -2.021  1.00  0.00     0.009 C 
ENDBRANCH  41  42
ENDBRANCH  27  41
ENDBRANCH   1  21
BRANCH   7  45
HETATM   45  C20 UNL     1      16.855   4.936  -3.631  1.00  0.00     0.073 C 
BRANCH  45  46
HETATM   46  C21 UNL     1      15.827   4.659  -2.557  1.00  0.00    -0.056 A 
HETATM   47  C22 UNL     1      15.390   3.345  -2.310  1.00  0.00     0.007 A 
HETATM   48  C23 UNL     1      14.437   3.093  -1.320  1.00  0.00     0.001 A 
HETATM   49  C24 UNL     1      13.909   4.147  -0.570  1.00  0.00     0.000 A 
HETATM   50  C25 UNL     1      14.327   5.458  -0.817  1.00  0.00     0.001 A 
HETATM   51  C26 UNL     1      15.287   5.713  -1.801  1.00  0.00     0.007 A 
ENDBRANCH  45  46
ENDBRANCH   7  45
TORSDOF 5
ENDMDL
MODEL 9
REMARK VINA RESULT:     -10.4      2.884      5.496
REMARK  5 active torsions:
REMARK  status: ('A' for Active; 'I' for Inactive)
REMARK    1  A    between atoms: C1_1  and  C2_2 
REMARK    2  A    between atoms: C2_2  and  C3_3 
REMARK    3  A    between atoms: C14_17  and  C15_18 
REMARK    4  A    between atoms: C19_24  and  C20_25 
REMARK    5  A    between atoms: C20_25  and  C21_26 
ROOT
HETATM    1  C15 UNL     1      20.438   7.424  -5.610  1.00  0.00     0.045 C 
HETATM    2  C16 UNL     1      19.025   8.039  -5.421  1.00  0.00     0.054 C 
HETATM    3  C17 UNL     1      18.605   7.701  -3.990  1.00  0.00     0.182 C 
HETATM    4  C18 UNL     1      17.141   7.397  -3.849  1.00  0.00     0.241 C 
HETATM    5  O2  UNL     1      16.290   8.081  -4.480  1.00  0.00    -0.271 OA
HETATM    6  N3  UNL     1      16.700   6.384  -2.937  1.00  0.00    -0.346 N 
HETATM    7  C19 UNL     1      17.610   5.645  -2.050  1.00  0.00     0.181 C 
HETATM    8  C27 UNL     1      19.031   5.657  -2.564  1.00  0.00     0.245 C 
HETATM    9  O3  UNL     1      19.893   4.896  -2.050  1.00  0.00    -0.271 OA
HETATM   10  N4  UNL     1      19.409   6.556  -3.612  1.00  0.00    -0.314 N 
HETATM   11  C28 UNL     1      20.571   6.362  -4.462  1.00  0.00     0.202 C 
HETATM   12  N5  UNL     1      21.787   6.699  -3.726  1.00  0.00    -0.367 N 
HETATM   13  C29 UNL     1      21.511   8.424  -5.227  1.00  0.00    -0.018 A 
HETATM   14  C30 UNL     1      21.687   9.744  -5.665  1.00  0.00     0.010 A 
HETATM   15  C31 UNL     1      22.711  10.518  -5.097  1.00  0.00     0.001 A 
HETATM   16  C32 UNL     1      22.262   7.942  -4.185  1.00  0.00     0.036 A 
HETATM   17  C33 UNL     1      23.274   8.695  -3.587  1.00  0.00     0.030 A 
HETATM   18  C34 UNL     1      23.512   9.991  -4.067  1.00  0.00     0.002 A 
HETATM   19  H22 UNL     1      15.670   6.297  -2.779  1.00  0.00     0.163 HD
HETATM   20  H31 UNL     1      22.149   6.186  -2.890  1.00  0.00     0.161 HD
ENDROOT
BRANCH   1  21
HETATM   21  C14 UNL     1      20.664   6.777  -7.042  1.00  0.00     0.045 C 
HETATM   22  C7  UNL     1      19.489   7.116  -8.028  1.00  0.00     0.202 C 
HETATM   23  N1  UNL     1      19.110   5.850  -8.633  1.00  0.00    -0.314 N 
HETATM   24  N2  UNL     1      20.046   8.003  -9.044  1.00  0.00    -0.367 N 
HETATM   25  C6  UNL     1      17.917   5.662  -9.406  1.00  0.00     0.245 C 
HETATM   26  C36 UNL     1      20.000   4.757  -8.281  1.00  0.00     0.182 C 
HETATM   27  C1  UNL     1      17.464   4.254  -9.737  1.00  0.00     0.177 C 
HETATM   28  O1  UNL     1      17.309   6.664  -9.871  1.00  0.00    -0.271 OA
HETATM   29  N6  UNL     1      17.940   3.330  -8.698  1.00  0.00    -0.346 N 
HETATM   30  C37 UNL     1      19.224   3.485  -8.083  1.00  0.00     0.241 C 
HETATM   31  H38 UNL     1      17.370   2.496  -8.426  1.00  0.00     0.163 HD
HETATM   32  O4  UNL     1      19.713   2.537  -7.412  1.00  0.00    -0.271 OA
HETATM   33  C35 UNL     1      20.731   5.226  -7.021  1.00  0.00     0.054 C 
HETATM   34  C8  UNL     1      21.443   8.064  -8.878  1.00  0.00     0.036 A 
HETATM   35  H15 UNL     1      19.519   8.396  -9.858  1.00  0.00     0.161 HD
HETATM   36  C9  UNL     1      22.343   8.642  -9.772  1.00  0.00     0.030 A 
HETATM   37  C13 UNL     1      21.858   7.351  -7.781  1.00  0.00    -0.018 A 
HETATM   38  C10 UNL     1      23.715   8.472  -9.539  1.00  0.00     0.002 A 
HETATM   39  C11 UNL     1      24.155   7.695  -8.453  1.00  0.00     0.001 A 
HETATM   40  C12 UNL     1      23.224   7.104  -7.583  1.00  0.00     0.010 A 
BRANCH  27  41
HETATM   41  C2  UNL     1      15.920   4.136  -9.890  1.00  0.00     0.038 C 
BRANCH  41  42
HETATM   42  C3  UNL     1      15.479   3.158 -11.009  1.00  0.00    -0.020 C 
HETATM   43  C4  UNL     1      14.898   1.848 -10.456  1.00  0.00     0.009 C 
HETATM   44  C5  UNL     1      14.453   3.834 -11.925  1.00  0.00     0.009 C 
ENDBRANCH  41  42
ENDBRANCH  27  41
ENDBRANCH   1  21
BRANCH   7  45
HETATM   45  C20 UNL     1      17.093   4.203  -1.846  1.00  0.00     0.073 C 
BRANCH  45  46
HETATM   46  C21 UNL     1      15.727   4.151  -1.199  1.00  0.00    -0.056 A 
HETATM   47  C22 UNL     1      14.722   3.315  -1.718  1.00  0.00     0.007 A 
HETATM   48  C23 UNL     1      13.461   3.272  -1.119  1.00  0.00     0.001 A 
HETATM   49  C24 UNL     1      13.188   4.064  -0.000  1.00  0.00     0.000 A 
HETATM   50  C25 UNL     1      14.176   4.908   0.515  1.00  0.00     0.001 A 
HETATM   51  C26 UNL     1      15.443   4.947  -0.076  1.00  0.00     0.007 A 
ENDBRANCH  45  46
ENDBRANCH   7  45
TORSDOF 5
ENDMDL
MODEL 10
REMARK VINA RESULT:     -10.2      2.183      8.738
REMARK  5 active torsions:
REMARK  status: ('A' for Active; 'I' for Inactive)
REMARK    1  A    between atoms: C1_1  and  C2_2 
REMARK    2  A    between atoms: C2_2  and  C3_3 
REMARK    3  A    between atoms: C14_17  and  C15_18 
REMARK    4  A    between atoms: C19_24  and  C20_25 
REMARK    5  A    between atoms: C20_25  and  C21_26 
ROOT
HETATM    1  C15 UNL     1      20.627   8.783  -6.210  1.00  0.00     0.045 C 
HETATM    2  C16 UNL     1      21.355   8.488  -7.550  1.00  0.00     0.054 C 
HETATM    3  C17 UNL     1      21.928   9.825  -8.024  1.00  0.00     0.182 C 
HETATM    4  C18 UNL     1      21.880  10.005  -9.514  1.00  0.00     0.241 C 
HETATM    5  O2  UNL     1      22.150   9.037 -10.277  1.00  0.00    -0.271 OA
HETATM    6  N3  UNL     1      21.606  11.294 -10.076  1.00  0.00    -0.346 N 
HETATM    7  C19 UNL     1      21.430  12.507  -9.265  1.00  0.00     0.181 C 
HETATM    8  C27 UNL     1      21.030  12.182  -7.845  1.00  0.00     0.245 C 
HETATM    9  O3  UNL     1      20.628  13.098  -7.078  1.00  0.00    -0.271 OA
HETATM   10  N4  UNL     1      21.138  10.841  -7.356  1.00  0.00    -0.314 N 
HETATM   11  C28 UNL     1      20.400  10.337  -6.210  1.00  0.00     0.202 C 
HETATM   12  N5  UNL     1      20.994  10.841  -4.975  1.00  0.00    -0.367 N 
HETATM   13  C29 UNL     1      21.575   8.614  -5.040  1.00  0.00    -0.018 A 
HETATM   14  C30 UNL     1      22.392   7.522  -4.714  1.00  0.00     0.010 A 
HETATM   15  C31 UNL     1      23.264   7.628  -3.619  1.00  0.00     0.001 A 
HETATM   16  C32 UNL     1      21.712   9.798  -4.361  1.00  0.00     0.036 A 
HETATM   17  C33 UNL     1      22.584   9.939  -3.280  1.00  0.00     0.030 A 
HETATM   18  C34 UNL     1      23.352   8.831  -2.895  1.00  0.00     0.002 A 
HETATM   19  H22 UNL     1      21.709  11.398 -11.111  1.00  0.00     0.163 HD
HETATM   20  H31 UNL     1      21.020  11.845  -4.684  1.00  0.00     0.161 HD
ENDROOT
BRANCH   1  21
HETATM   21  C14 UNL     1      19.265   7.987  -6.038  1.00  0.00     0.045 C 
HETATM   22  C7  UNL     1      18.683   8.132  -4.587  1.00  0.00     0.202 C 
HETATM   23  N1  UNL     1      18.352   6.782  -4.162  1.00  0.00    -0.314 N 
HETATM   24  N2  UNL     1      17.465   8.926  -4.708  1.00  0.00    -0.367 N 
HETATM   25  C6  UNL     1      18.025   6.429  -2.812  1.00  0.00     0.245 C 
HETATM   26  C36 UNL     1      18.498   5.797  -5.220  1.00  0.00     0.182 C 
HETATM   27  C1  UNL     1      17.988   4.966  -2.418  1.00  0.00     0.177 C 
HETATM   28  O1  UNL     1      17.690   7.328  -1.994  1.00  0.00    -0.271 OA
HETATM   29  N6  UNL     1      18.898   4.203  -3.283  1.00  0.00    -0.346 N 
HETATM   30  C37 UNL     1      19.050   4.510  -4.674  1.00  0.00     0.241 C 
HETATM   31  H38 UNL     1      19.415   3.373  -2.912  1.00  0.00     0.163 HD
HETATM   32  O4  UNL     1      19.613   3.682  -5.439  1.00  0.00    -0.271 OA
HETATM   33  C35 UNL     1      19.406   6.457  -6.260  1.00  0.00     0.054 C 
HETATM   34  C8  UNL     1      17.166   9.094  -6.073  1.00  0.00     0.036 A 
HETATM   35  H15 UNL     1      16.831   9.186  -3.917  1.00  0.00     0.161 HD
HETATM   36  C9  UNL     1      15.981   9.619  -6.588  1.00  0.00     0.030 A 
HETATM   37  C13 UNL     1      18.132   8.544  -6.879  1.00  0.00    -0.018 A 
HETATM   38  C10 UNL     1      15.774   9.565  -7.973  1.00  0.00     0.002 A 
HETATM   39  C11 UNL     1      16.727   8.951  -8.804  1.00  0.00     0.001 A 
HETATM   40  C12 UNL     1      17.901   8.409  -8.255  1.00  0.00     0.010 A 
BRANCH  27  41
HETATM   41  C2  UNL     1      18.352   4.733  -0.923  1.00  0.00     0.038 C 
BRANCH  41  42
HETATM   42  C3  UNL     1      17.164   4.226  -0.066  1.00  0.00    -0.020 C 
HETATM   43  C4  UNL     1      16.294   5.369   0.478  1.00  0.00     0.009 C 
HETATM   44  C5  UNL     1      16.299   3.261  -0.885  1.00  0.00     0.009 C 
ENDBRANCH  41  42
ENDBRANCH  27  41
ENDBRANCH   1  21
BRANCH   7  45
HETATM   45  C20 UNL     1      20.409  13.450  -9.940  1.00  0.00     0.073 C 
BRANCH  45  46
HETATM   46  C21 UNL     1      19.188  12.724 -10.462  1.00  0.00    -0.056 A 
HETATM   47  C22 UNL     1      19.259  11.967 -11.646  1.00  0.00     0.007 A 
HETATM   48  C23 UNL     1      18.129  11.302 -12.126  1.00  0.00     0.001 A 
HETATM   49  C24 UNL     1      16.918  11.386 -11.434  1.00  0.00     0.000 A 
HETATM   50  C25 UNL     1      16.834  12.146 -10.264  1.00  0.00     0.001 A 
HETATM   51  C26 UNL     1      17.965  12.806  -9.774  1.00  0.00     0.007 A 
ENDBRANCH  45  46
ENDBRANCH   7  45
TORSDOF 5
ENDMDL
MODEL 11
REMARK VINA RESULT:     -10.1      2.228      5.832
REMARK  5 active torsions:
REMARK  status: ('A' for Active; 'I' for Inactive)
REMARK    1  A    between atoms: C1_1  and  C2_2 
REMARK    2  A    between atoms: C2_2  and  C3_3 
REMARK    3  A    between atoms: C14_17  and  C15_18 
REMARK    4  A    between atoms: C19_24  and  C20_25 
REMARK    5  A    between atoms: C20_25  and  C21_26 
ROOT
HETATM    1  C15 UNL     1      20.560   8.090  -6.019  1.00  0.00     0.045 C 
HETATM    2  C16 UNL     1      19.242   8.886  -5.817  1.00  0.00     0.054 C 
HETATM    3  C17 UNL     1      18.600   8.327  -4.546  1.00  0.00     0.182 C 
HETATM    4  C18 UNL     1      17.102   8.258  -4.609  1.00  0.00     0.241 C 
HETATM    5  O2  UNL     1      16.447   9.199  -5.137  1.00  0.00    -0.271 OA
HETATM    6  N3  UNL     1      16.404   7.165  -4.001  1.00  0.00    -0.346 N 
HETATM    7  C19 UNL     1      17.075   6.106  -3.233  1.00  0.00     0.181 C 
HETATM    8  C27 UNL     1      18.535   5.982  -3.603  1.00  0.00     0.245 C 
HETATM    9  O3  UNL     1      19.203   4.990  -3.206  1.00  0.00    -0.271 OA
HETATM   10  N4  UNL     1      19.171   7.005  -4.376  1.00  0.00    -0.314 N 
HETATM   11  C28 UNL     1      20.388   6.800  -5.142  1.00  0.00     0.202 C 
HETATM   12  N5  UNL     1      21.539   6.754  -4.244  1.00  0.00    -0.367 N 
HETATM   13  C29 UNL     1      21.714   8.783  -5.321  1.00  0.00    -0.018 A 
HETATM   14  C30 UNL     1      22.137  10.115  -5.423  1.00  0.00     0.010 A 
HETATM   15  C31 UNL     1      23.187  10.559  -4.603  1.00  0.00     0.001 A 
HETATM   16  C32 UNL     1      22.248   7.966  -4.357  1.00  0.00     0.036 A 
HETATM   17  C33 UNL     1      23.278   8.385  -3.515  1.00  0.00     0.030 A 
HETATM   18  C34 UNL     1      23.765   9.692  -3.657  1.00  0.00     0.002 A 
HETATM   19  H22 UNL     1      15.361   7.226  -3.958  1.00  0.00     0.163 HD
HETATM   20  H31 UNL     1      21.713   6.019  -3.521  1.00  0.00     0.161 HD
ENDROOT
BRANCH   1  21
HETATM   21  C14 UNL     1      20.863   7.737  -7.536  1.00  0.00     0.045 C 
HETATM   22  C7  UNL     1      19.871   6.655  -8.095  1.00  0.00     0.202 C 
HETATM   23  N1  UNL     1      20.706   5.661  -8.751  1.00  0.00    -0.314 N 
HETATM   24  N2  UNL     1      19.036   7.330  -9.082  1.00  0.00    -0.367 N 
HETATM   25  C6  UNL     1      20.229   4.379  -9.180  1.00  0.00     0.245 C 
HETATM   26  C36 UNL     1      22.104   6.048  -8.827  1.00  0.00     0.182 C 
HETATM   27  C1  UNL     1      21.231   3.313  -9.576  1.00  0.00     0.177 C 
HETATM   28  O1  UNL     1      18.990   4.182  -9.303  1.00  0.00    -0.271 OA
HETATM   29  N6  UNL     1      22.494   3.538  -8.861  1.00  0.00    -0.346 N 
HETATM   30  C37 UNL     1      22.995   4.857  -8.612  1.00  0.00     0.241 C 
HETATM   31  H38 UNL     1      23.091   2.730  -8.568  1.00  0.00     0.163 HD
HETATM   32  O4  UNL     1      24.192   5.012  -8.252  1.00  0.00    -0.271 OA
HETATM   33  C35 UNL     1      22.277   7.136  -7.765  1.00  0.00     0.054 C 
HETATM   34  C8  UNL     1      19.551   8.622  -9.305  1.00  0.00     0.036 A 
HETATM   35  H15 UNL     1      18.283   6.877  -9.650  1.00  0.00     0.161 HD
HETATM   36  C9  UNL     1      19.151   9.493 -10.318  1.00  0.00     0.030 A 
HETATM   37  C13 UNL     1      20.618   8.895  -8.485  1.00  0.00    -0.018 A 
HETATM   38  C10 UNL     1      19.879  10.677 -10.504  1.00  0.00     0.002 A 
HETATM   39  C11 UNL     1      21.010  10.941  -9.712  1.00  0.00     0.001 A 
HETATM   40  C12 UNL     1      21.403  10.034  -8.715  1.00  0.00     0.010 A 
BRANCH  27  41
HETATM   41  C2  UNL     1      20.715   1.869  -9.309  1.00  0.00     0.038 C 
BRANCH  41  42
HETATM   42  C3  UNL     1      20.743   1.466  -7.813  1.00  0.00    -0.020 C 
HETATM   43  C4  UNL     1      19.339   1.249  -7.230  1.00  0.00     0.009 C 
HETATM   44  C5  UNL     1      21.584   0.198  -7.626  1.00  0.00     0.009 C 
ENDBRANCH  41  42
ENDBRANCH  27  41
ENDBRANCH   1  21
BRANCH   7  45
HETATM   45  C20 UNL     1      16.327   4.767  -3.416  1.00  0.00     0.073 C 
BRANCH  45  46
HETATM   46  C21 UNL     1      15.353   4.476  -2.297  1.00  0.00    -0.056 A 
HETATM   47  C22 UNL     1      14.934   5.502  -1.430  1.00  0.00     0.007 A 
HETATM   48  C23 UNL     1      14.037   5.229  -0.395  1.00  0.00     0.001 A 
HETATM   49  C24 UNL     1      13.551   3.931  -0.212  1.00  0.00     0.000 A 
HETATM   50  C25 UNL     1      13.970   2.903  -1.061  1.00  0.00     0.001 A 
HETATM   51  C26 UNL     1      14.861   3.174  -2.103  1.00  0.00     0.007 A 
ENDBRANCH  45  46
ENDBRANCH   7  45
TORSDOF 5
ENDMDL
MODEL 12
REMARK VINA RESULT:     -10.1      2.159      7.814
REMARK  5 active torsions:
REMARK  status: ('A' for Active; 'I' for Inactive)
REMARK    1  A    between atoms: C1_1  and  C2_2 
REMARK    2  A    between atoms: C2_2  and  C3_3 
REMARK    3  A    between atoms: C14_17  and  C15_18 
REMARK    4  A    between atoms: C19_24  and  C20_25 
REMARK    5  A    between atoms: C20_25  and  C21_26 
ROOT
HETATM    1  C15 UNL     1      20.585   8.577  -6.347  1.00  0.00     0.045 C 
HETATM    2  C16 UNL     1      20.821   9.107  -7.788  1.00  0.00     0.054 C 
HETATM    3  C17 UNL     1      19.820  10.246  -7.990  1.00  0.00     0.182 C 
HETATM    4  C18 UNL     1      19.260  10.314  -9.382  1.00  0.00     0.241 C 
HETATM    5  O2  UNL     1      20.011  10.115 -10.376  1.00  0.00    -0.271 OA
HETATM    6  N3  UNL     1      17.892  10.683  -9.591  1.00  0.00    -0.346 N 
HETATM    7  C19 UNL     1      16.988  11.079  -8.502  1.00  0.00     0.181 C 
HETATM    8  C27 UNL     1      17.450  10.549  -7.165  1.00  0.00     0.245 C 
HETATM    9  O3  UNL     1      16.684  10.608  -6.165  1.00  0.00    -0.271 OA
HETATM   10  N4  UNL     1      18.768  10.010  -7.021  1.00  0.00    -0.314 N 
HETATM   11  C28 UNL     1      19.158   9.102  -5.956  1.00  0.00     0.202 C 
HETATM   12  N5  UNL     1      19.317   9.840  -4.706  1.00  0.00    -0.367 N 
HETATM   13  C29 UNL     1      21.463   9.315  -5.356  1.00  0.00    -0.018 A 
HETATM   14  C30 UNL     1      22.849   9.522  -5.386  1.00  0.00     0.010 A 
HETATM   15  C31 UNL     1      23.439  10.323  -4.395  1.00  0.00     0.001 A 
HETATM   16  C32 UNL     1      20.692   9.977  -4.435  1.00  0.00     0.036 A 
HETATM   17  C33 UNL     1      21.247  10.795  -3.450  1.00  0.00     0.030 A 
HETATM   18  C34 UNL     1      22.641  10.950  -3.421  1.00  0.00     0.002 A 
HETATM   19  H22 UNL     1      17.583  10.841 -10.577  1.00  0.00     0.163 HD
HETATM   20  H31 UNL     1      18.549  10.327  -4.190  1.00  0.00     0.161 HD
ENDROOT
BRANCH   1  21
HETATM   21  C14 UNL     1      20.688   6.999  -6.225  1.00  0.00     0.045 C 
HETATM   22  C7  UNL     1      19.318   6.297  -6.541  1.00  0.00     0.202 C 
HETATM   23  N1  UNL     1      19.103   5.354  -5.456  1.00  0.00    -0.314 N 
HETATM   24  N2  UNL     1      19.504   5.575  -7.795  1.00  0.00    -0.367 N 
HETATM   25  C6  UNL     1      17.858   4.684  -5.219  1.00  0.00     0.245 C 
HETATM   26  C36 UNL     1      20.241   5.242  -4.560  1.00  0.00     0.182 C 
HETATM   27  C1  UNL     1      17.647   3.959  -3.904  1.00  0.00     0.177 C 
HETATM   28  O1  UNL     1      16.992   4.632  -6.132  1.00  0.00    -0.271 OA
HETATM   29  N6  UNL     1      18.469   4.588  -2.861  1.00  0.00    -0.346 N 
HETATM   30  C37 UNL     1      19.782   5.090  -3.137  1.00  0.00     0.241 C 
HETATM   31  H38 UNL     1      18.134   4.629  -1.872  1.00  0.00     0.163 HD
HETATM   32  O4  UNL     1      20.559   5.366  -2.184  1.00  0.00    -0.271 OA
HETATM   33  C35 UNL     1      21.067   6.507  -4.802  1.00  0.00     0.054 C 
HETATM   34  C8  UNL     1      20.868   5.613  -8.144  1.00  0.00     0.036 A 
HETATM   35  H15 UNL     1      18.778   4.989  -8.269  1.00  0.00     0.161 HD
HETATM   36  C9  UNL     1      21.468   4.872  -9.161  1.00  0.00     0.030 A 
HETATM   37  C13 UNL     1      21.599   6.372  -7.264  1.00  0.00    -0.018 A 
HETATM   38  C10 UNL     1      22.865   4.900  -9.271  1.00  0.00     0.002 A 
HETATM   39  C11 UNL     1      23.630   5.625  -8.340  1.00  0.00     0.001 A 
HETATM   40  C12 UNL     1      22.999   6.343  -7.312  1.00  0.00     0.010 A 
BRANCH  27  41
HETATM   41  C2  UNL     1      16.155   3.929  -3.463  1.00  0.00     0.038 C 
BRANCH  41  42
HETATM   42  C3  UNL     1      15.949   4.200  -1.951  1.00  0.00    -0.020 C 
HETATM   43  C4  UNL     1      15.039   5.408  -1.683  1.00  0.00     0.009 C 
HETATM   44  C5  UNL     1      15.371   2.955  -1.268  1.00  0.00     0.009 C 
ENDBRANCH  41  42
ENDBRANCH  27  41
ENDBRANCH   1  21
BRANCH   7  45
HETATM   45  C20 UNL     1      15.545  10.628  -8.823  1.00  0.00     0.073 C 
BRANCH  45  46
HETATM   46  C21 UNL     1      15.476   9.231  -9.396  1.00  0.00    -0.056 A 
HETATM   47  C22 UNL     1      14.827   8.992 -10.622  1.00  0.00     0.007 A 
HETATM   48  C23 UNL     1      14.762   7.699 -11.146  1.00  0.00     0.001 A 
HETATM   49  C24 UNL     1      15.340   6.632 -10.453  1.00  0.00     0.000 A 
HETATM   50  C25 UNL     1      15.976   6.856  -9.229  1.00  0.00     0.001 A 
HETATM   51  C26 UNL     1      16.051   8.150  -8.705  1.00  0.00     0.007 A 
ENDBRANCH  45  46
ENDBRANCH   7  45
TORSDOF 5
ENDMDL
MODEL 13
REMARK VINA RESULT:     -10.1      2.501      6.129
REMARK  5 active torsions:
REMARK  status: ('A' for Active; 'I' for Inactive)
REMARK    1  A    between atoms: C1_1  and  C2_2 
REMARK    2  A    between atoms: C2_2  and  C3_3 
REMARK    3  A    between atoms: C14_17  and  C15_18 
REMARK    4  A    between atoms: C19_24  and  C20_25 
REMARK    5  A    between atoms: C20_25  and  C21_26 
ROOT
HETATM    1  C15 UNL     1      20.004   8.068  -5.919  1.00  0.00     0.045 C 
HETATM    2  C16 UNL     1      18.628   8.775  -5.787  1.00  0.00     0.054 C 
HETATM    3  C17 UNL     1      18.041   8.313  -4.452  1.00  0.00     0.182 C 
HETATM    4  C18 UNL     1      16.552   8.120  -4.485  1.00  0.00     0.241 C 
HETATM    5  O2  UNL     1      15.822   8.941  -5.104  1.00  0.00    -0.271 OA
HETATM    6  N3  UNL     1      15.947   7.050  -3.749  1.00  0.00    -0.346 N 
HETATM    7  C19 UNL     1      16.705   6.139  -2.879  1.00  0.00     0.181 C 
HETATM    8  C27 UNL     1      18.168   6.089  -3.255  1.00  0.00     0.245 C 
HETATM    9  O3  UNL     1      18.915   5.204  -2.760  1.00  0.00    -0.271 OA
HETATM   10  N4  UNL     1      18.716   7.067  -4.145  1.00  0.00    -0.314 N 
HETATM   11  C28 UNL     1      19.941   6.874  -4.901  1.00  0.00     0.202 C 
HETATM   12  N5  UNL     1      21.097   7.019  -4.021  1.00  0.00    -0.367 N 
HETATM   13  C29 UNL     1      21.103   8.922  -5.319  1.00  0.00    -0.018 A 
HETATM   14  C30 UNL     1      21.419  10.264  -5.573  1.00  0.00     0.010 A 
HETATM   15  C31 UNL     1      22.434  10.878  -4.823  1.00  0.00     0.001 A 
HETATM   16  C32 UNL     1      21.706   8.262  -4.278  1.00  0.00     0.036 A 
HETATM   17  C33 UNL     1      22.705   8.853  -3.502  1.00  0.00     0.030 A 
HETATM   18  C34 UNL     1      23.085  10.170  -3.795  1.00  0.00     0.002 A 
HETATM   19  H22 UNL     1      14.903   7.033  -3.698  1.00  0.00     0.163 HD
HETATM   20  H31 UNL     1      21.333   6.385  -3.224  1.00  0.00     0.161 HD
ENDROOT
BRANCH   1  21
HETATM   21  C14 UNL     1      20.326   7.572  -7.392  1.00  0.00     0.045 C 
HETATM   22  C7  UNL     1      20.430   6.007  -7.473  1.00  0.00     0.202 C 
HETATM   23  N1  UNL     1      21.659   5.735  -8.198  1.00  0.00    -0.314 N 
HETATM   24  N2  UNL     1      19.283   5.558  -8.256  1.00  0.00    -0.367 N 
HETATM   25  C6  UNL     1      22.264   4.437  -8.281  1.00  0.00     0.245 C 
HETATM   26  C36 UNL     1      22.283   6.930  -8.738  1.00  0.00     0.182 C 
HETATM   27  C1  UNL     1      23.682   4.314  -8.800  1.00  0.00     0.177 C 
HETATM   28  O1  UNL     1      21.585   3.412  -8.004  1.00  0.00    -0.271 OA
HETATM   29  N6  UNL     1      24.413   5.560  -8.529  1.00  0.00    -0.346 N 
HETATM   30  C37 UNL     1      23.780   6.841  -8.629  1.00  0.00     0.241 C 
HETATM   31  H38 UNL     1      25.436   5.541  -8.314  1.00  0.00     0.163 HD
HETATM   32  O4  UNL     1      24.485   7.885  -8.664  1.00  0.00    -0.271 OA
HETATM   33  C35 UNL     1      21.683   8.090  -7.940  1.00  0.00     0.054 C 
HETATM   34  C8  UNL     1      18.635   6.683  -8.801  1.00  0.00     0.036 A 
HETATM   35  H15 UNL     1      19.073   4.564  -8.505  1.00  0.00     0.161 HD
HETATM   36  C9  UNL     1      17.627   6.654  -9.763  1.00  0.00     0.030 A 
HETATM   37  C13 UNL     1      19.210   7.857  -8.380  1.00  0.00    -0.018 A 
HETATM   38  C10 UNL     1      17.204   7.868 -10.322  1.00  0.00     0.002 A 
HETATM   39  C11 UNL     1      17.825   9.072  -9.944  1.00  0.00     0.001 A 
HETATM   40  C12 UNL     1      18.854   9.068  -8.990  1.00  0.00     0.010 A 
BRANCH  27  41
HETATM   41  C2  UNL     1      24.447   3.103  -8.191  1.00  0.00     0.038 C 
BRANCH  41  42
HETATM   42  C3  UNL     1      25.005   2.123  -9.253  1.00  0.00    -0.020 C 
HETATM   43  C4  UNL     1      24.203   2.147 -10.563  1.00  0.00     0.009 C 
HETATM   44  C5  UNL     1      26.477   2.441  -9.541  1.00  0.00     0.009 C 
ENDBRANCH  41  42
ENDBRANCH  27  41
ENDBRANCH   1  21
BRANCH   7  45
HETATM   45  C20 UNL     1      16.065   4.733  -2.902  1.00  0.00     0.073 C 
BRANCH  45  46
HETATM   46  C21 UNL     1      15.029   4.538  -1.818  1.00  0.00    -0.056 A 
HETATM   47  C22 UNL     1      14.316   3.329  -1.721  1.00  0.00     0.007 A 
HETATM   48  C23 UNL     1      13.357   3.154  -0.721  1.00  0.00     0.001 A 
HETATM   49  C24 UNL     1      13.098   4.181   0.190  1.00  0.00     0.000 A 
HETATM   50  C25 UNL     1      13.792   5.390   0.095  1.00  0.00     0.001 A 
HETATM   51  C26 UNL     1      14.759   5.567  -0.899  1.00  0.00     0.007 A 
ENDBRANCH  45  46
ENDBRANCH   7  45
TORSDOF 5
ENDMDL
MODEL 14
REMARK VINA RESULT:     -10.0      2.253      8.460
REMARK  5 active torsions:
REMARK  status: ('A' for Active; 'I' for Inactive)
REMARK    1  A    between atoms: C1_1  and  C2_2 
REMARK    2  A    between atoms: C2_2  and  C3_3 
REMARK    3  A    between atoms: C14_17  and  C15_18 
REMARK    4  A    between atoms: C19_24  and  C20_25 
REMARK    5  A    between atoms: C20_25  and  C21_26 
ROOT
HETATM    1  C15 UNL     1      19.456   5.855  -6.571  1.00  0.00     0.045 C 
HETATM    2  C16 UNL     1      18.479   6.462  -7.615  1.00  0.00     0.054 C 
HETATM    3  C17 UNL     1      19.273   6.581  -8.917  1.00  0.00     0.182 C 
HETATM    4  C18 UNL     1      18.935   7.806  -9.717  1.00  0.00     0.241 C 
HETATM    5  O2  UNL     1      17.736   8.186  -9.816  1.00  0.00    -0.271 OA
HETATM    6  N3  UNL     1      19.960   8.503 -10.435  1.00  0.00    -0.346 N 
HETATM    7  C19 UNL     1      21.354   8.044 -10.500  1.00  0.00     0.181 C 
HETATM    8  C27 UNL     1      21.703   7.135  -9.345  1.00  0.00     0.245 C 
HETATM    9  O3  UNL     1      22.905   6.829  -9.125  1.00  0.00    -0.271 OA
HETATM   10  N4  UNL     1      20.667   6.593  -8.519  1.00  0.00    -0.314 N 
HETATM   11  C28 UNL     1      20.886   6.094  -7.172  1.00  0.00     0.202 C 
HETATM   12  N5  UNL     1      21.536   4.788  -7.225  1.00  0.00    -0.367 N 
HETATM   13  C29 UNL     1      19.371   4.342  -6.577  1.00  0.00    -0.018 A 
HETATM   14  C30 UNL     1      18.243   3.518  -6.461  1.00  0.00     0.010 A 
HETATM   15  C31 UNL     1      18.399   2.129  -6.586  1.00  0.00     0.001 A 
HETATM   16  C32 UNL     1      20.584   3.797  -6.916  1.00  0.00     0.036 A 
HETATM   17  C33 UNL     1      20.766   2.422  -7.067  1.00  0.00     0.030 A 
HETATM   18  C34 UNL     1      19.661   1.579  -6.878  1.00  0.00     0.002 A 
HETATM   19  H22 UNL     1      19.657   9.270 -11.078  1.00  0.00     0.163 HD
HETATM   20  H31 UNL     1      22.498   4.606  -7.590  1.00  0.00     0.161 HD
ENDROOT
BRANCH   1  21
HETATM   21  C14 UNL     1      19.310   6.487  -5.122  1.00  0.00     0.045 C 
HETATM   22  C7  UNL     1      19.217   5.384  -4.009  1.00  0.00     0.202 C 
HETATM   23  N1  UNL     1      18.081   5.758  -3.182  1.00  0.00    -0.314 N 
HETATM   24  N2  UNL     1      20.448   5.476  -3.231  1.00  0.00    -0.367 N 
HETATM   25  C6  UNL     1      17.491   4.894  -2.202  1.00  0.00     0.245 C 
HETATM   26  C36 UNL     1      17.525   7.055  -3.526  1.00  0.00     0.182 C 
HETATM   27  C1  UNL     1      16.143   5.258  -1.612  1.00  0.00     0.177 C 
HETATM   28  O1  UNL     1      18.132   3.893  -1.783  1.00  0.00    -0.271 OA
HETATM   29  N6  UNL     1      15.386   6.065  -2.579  1.00  0.00    -0.346 N 
HETATM   30  C37 UNL     1      16.026   7.035  -3.415  1.00  0.00     0.241 C 
HETATM   31  H38 UNL     1      14.345   5.989  -2.635  1.00  0.00     0.163 HD
HETATM   32  O4  UNL     1      15.331   7.892  -4.024  1.00  0.00    -0.271 OA
HETATM   33  C35 UNL     1      18.027   7.344  -4.943  1.00  0.00     0.054 C 
HETATM   34  C8  UNL     1      21.155   6.624  -3.635  1.00  0.00     0.036 A 
HETATM   35  H15 UNL     1      20.686   4.884  -2.402  1.00  0.00     0.161 HD
HETATM   36  C9  UNL     1      22.270   7.161  -2.992  1.00  0.00     0.030 A 
HETATM   37  C13 UNL     1      20.535   7.266  -4.679  1.00  0.00    -0.018 A 
HETATM   38  C10 UNL     1      22.757   8.402  -3.426  1.00  0.00     0.002 A 
HETATM   39  C11 UNL     1      22.096   9.098  -4.454  1.00  0.00     0.001 A 
HETATM   40  C12 UNL     1      20.961   8.544  -5.067  1.00  0.00     0.010 A 
BRANCH  27  41
HETATM   41  C2  UNL     1      15.312   4.013  -1.187  1.00  0.00     0.038 C 
BRANCH  41  42
HETATM   42  C3  UNL     1      13.855   4.348  -0.780  1.00  0.00    -0.020 C 
HETATM   43  C4  UNL     1      12.963   3.101  -0.689  1.00  0.00     0.009 C 
HETATM   44  C5  UNL     1      13.841   5.094   0.558  1.00  0.00     0.009 C 
ENDBRANCH  41  42
ENDBRANCH  27  41
ENDBRANCH   1  21
BRANCH   7  45
HETATM   45  C20 UNL     1      22.307   9.259 -10.573  1.00  0.00     0.073 C 
BRANCH  45  46
HETATM   46  C21 UNL     1      21.818  10.443  -9.769  1.00  0.00    -0.056 A 
HETATM   47  C22 UNL     1      21.669  10.346  -8.373  1.00  0.00     0.007 A 
HETATM   48  C23 UNL     1      21.214  11.441  -7.635  1.00  0.00     0.001 A 
HETATM   49  C24 UNL     1      20.900  12.640  -8.280  1.00  0.00     0.000 A 
HETATM   50  C25 UNL     1      21.032  12.742  -9.667  1.00  0.00     0.001 A 
HETATM   51  C26 UNL     1      21.496  11.652 -10.409  1.00  0.00     0.007 A 
ENDBRANCH  45  46
ENDBRANCH   7  45
TORSDOF 5
ENDMDL
MODEL 15
REMARK VINA RESULT:     -10.0      2.644      8.820
REMARK  5 active torsions:
REMARK  status: ('A' for Active; 'I' for Inactive)
REMARK    1  A    between atoms: C1_1  and  C2_2 
REMARK    2  A    between atoms: C2_2  and  C3_3 
REMARK    3  A    between atoms: C14_17  and  C15_18 
REMARK    4  A    between atoms: C19_24  and  C20_25 
REMARK    5  A    between atoms: C20_25  and  C21_26 
ROOT
HETATM    1  C15 UNL     1      20.842   7.971  -5.967  1.00  0.00     0.045 C 
HETATM    2  C16 UNL     1      22.037   7.122  -6.481  1.00  0.00     0.054 C 
HETATM    3  C17 UNL     1      22.854   8.046  -7.386  1.00  0.00     0.182 C 
HETATM    4  C18 UNL     1      23.444   7.350  -8.579  1.00  0.00     0.241 C 
HETATM    5  O2  UNL     1      23.933   6.194  -8.459  1.00  0.00    -0.271 OA
HETATM    6  N3  UNL     1      23.526   8.026  -9.839  1.00  0.00    -0.346 N 
HETATM    7  C19 UNL     1      23.121   9.426 -10.033  1.00  0.00     0.181 C 
HETATM    8  C27 UNL     1      22.144   9.880  -8.975  1.00  0.00     0.245 C 
HETATM    9  O3  UNL     1      21.530  10.973  -9.111  1.00  0.00    -0.271 OA
HETATM   10  N4  UNL     1      21.937   9.090  -7.799  1.00  0.00    -0.314 N 
HETATM   11  C28 UNL     1      20.754   9.183  -6.961  1.00  0.00     0.202 C 
HETATM   12  N5  UNL     1      20.816  10.392  -6.145  1.00  0.00    -0.367 N 
HETATM   13  C29 UNL     1      21.201   8.666  -4.669  1.00  0.00    -0.018 A 
HETATM   14  C30 UNL     1      21.724   8.120  -3.489  1.00  0.00     0.010 A 
HETATM   15  C31 UNL     1      22.066   8.982  -2.434  1.00  0.00     0.001 A 
HETATM   16  C32 UNL     1      21.132  10.028  -4.822  1.00  0.00     0.036 A 
HETATM   17  C33 UNL     1      21.484  10.910  -3.799  1.00  0.00     0.030 A 
HETATM   18  C34 UNL     1      21.936  10.375  -2.584  1.00  0.00     0.002 A 
HETATM   19  H22 UNL     1      24.059   7.552 -10.604  1.00  0.00     0.163 HD
HETATM   20  H31 UNL     1      20.794  11.371  -6.512  1.00  0.00     0.161 HD
ENDROOT
BRANCH   1  21
HETATM   21  C14 UNL     1      19.476   7.167  -5.894  1.00  0.00     0.045 C 
HETATM   22  C7  UNL     1      18.715   7.429  -4.545  1.00  0.00     0.202 C 
HETATM   23  N1  UNL     1      18.345   6.115  -4.044  1.00  0.00    -0.314 N 
HETATM   24  N2  UNL     1      17.515   8.184  -4.887  1.00  0.00    -0.367 N 
HETATM   25  C6  UNL     1      17.854   5.878  -2.718  1.00  0.00     0.245 C 
HETATM   26  C36 UNL     1      18.630   5.043  -4.982  1.00  0.00     0.182 C 
HETATM   27  C1  UNL     1      17.781   4.455  -2.200  1.00  0.00     0.177 C 
HETATM   28  O1  UNL     1      17.412   6.840  -2.033  1.00  0.00    -0.271 OA
HETATM   29  N6  UNL     1      18.799   3.636  -2.873  1.00  0.00    -0.346 N 
HETATM   30  C37 UNL     1      19.121   3.821  -4.256  1.00  0.00     0.241 C 
HETATM   31  H38 UNL     1      19.272   2.853  -2.367  1.00  0.00     0.163 HD
HETATM   32  O4  UNL     1      19.782   2.940  -4.867  1.00  0.00    -0.271 OA
HETATM   33  C35 UNL     1      19.657   5.626  -5.956  1.00  0.00     0.054 C 
HETATM   34  C8  UNL     1      17.388   8.225  -6.289  1.00  0.00     0.036 A 
HETATM   35  H15 UNL     1      16.785   8.501  -4.208  1.00  0.00     0.161 HD
HETATM   36  C9  UNL     1      16.272   8.678  -6.992  1.00  0.00     0.030 A 
HETATM   37  C13 UNL     1      18.452   7.624  -6.916  1.00  0.00    -0.018 A 
HETATM   38  C10 UNL     1      16.242   8.497  -8.382  1.00  0.00     0.002 A 
HETATM   39  C11 UNL     1      17.297   7.830  -9.029  1.00  0.00     0.001 A 
HETATM   40  C12 UNL     1      18.397   7.363  -8.292  1.00  0.00     0.010 A 
BRANCH  27  41
HETATM   41  C2  UNL     1      17.957   4.364  -0.657  1.00  0.00     0.038 C 
BRANCH  41  42
HETATM   42  C3  UNL     1      16.670   3.931   0.090  1.00  0.00    -0.020 C 
HETATM   43  C4  UNL     1      15.908   5.118   0.697  1.00  0.00     0.009 C 
HETATM   44  C5  UNL     1      15.748   3.153  -0.856  1.00  0.00     0.009 C 
ENDBRANCH  41  42
ENDBRANCH  27  41
ENDBRANCH   1  21
BRANCH   7  45
HETATM   45  C20 UNL     1      22.548   9.618 -11.455  1.00  0.00     0.073 C 
BRANCH  45  46
HETATM   46  C21 UNL     1      21.725   8.439 -11.925  1.00  0.00    -0.056 A 
HETATM   47  C22 UNL     1      20.473   8.166 -11.345  1.00  0.00     0.007 A 
HETATM   48  C23 UNL     1      19.717   7.075 -11.779  1.00  0.00     0.001 A 
HETATM   49  C24 UNL     1      20.203   6.244 -12.792  1.00  0.00     0.000 A 
HETATM   50  C25 UNL     1      21.451   6.500 -13.366  1.00  0.00     0.001 A 
HETATM   51  C26 UNL     1      22.207   7.597 -12.941  1.00  0.00     0.007 A 
ENDBRANCH  45  46
ENDBRANCH   7  45
TORSDOF 5
ENDMDL
MODEL 16
REMARK VINA RESULT:      -9.9      2.657      8.537
REMARK  5 active torsions:
REMARK  status: ('A' for Active; 'I' for Inactive)
REMARK    1  A    between atoms: C1_1  and  C2_2 
REMARK    2  A    between atoms: C2_2  and  C3_3 
REMARK    3  A    between atoms: C14_17  and  C15_18 
REMARK    4  A    between atoms: C19_24  and  C20_25 
REMARK    5  A    between atoms: C20_25  and  C21_26 
ROOT
HETATM    1  C15 UNL     1      20.039   7.569  -6.882  1.00  0.00     0.045 C 
HETATM    2  C16 UNL     1      21.359   8.191  -7.413  1.00  0.00     0.054 C 
HETATM    3  C17 UNL     1      21.942   7.172  -8.395  1.00  0.00     0.182 C 
HETATM    4  C18 UNL     1      23.441   7.090  -8.357  1.00  0.00     0.241 C 
HETATM    5  O2  UNL     1      24.129   8.142  -8.248  1.00  0.00    -0.271 OA
HETATM    6  N3  UNL     1      24.098   5.829  -8.524  1.00  0.00    -0.346 N 
HETATM    7  C19 UNL     1      23.382   4.577  -8.809  1.00  0.00     0.181 C 
HETATM    8  C27 UNL     1      21.937   4.644  -8.374  1.00  0.00     0.245 C 
HETATM    9  O3  UNL     1      21.239   3.595  -8.342  1.00  0.00    -0.271 OA
HETATM   10  N4  UNL     1      21.346   5.902  -8.030  1.00  0.00    -0.314 N 
HETATM   11  C28 UNL     1      20.157   6.038  -7.206  1.00  0.00     0.202 C 
HETATM   12  N5  UNL     1      18.971   5.687  -7.983  1.00  0.00    -0.367 N 
HETATM   13  C29 UNL     1      18.869   7.976  -7.755  1.00  0.00    -0.018 A 
HETATM   14  C30 UNL     1      18.468   9.258  -8.156  1.00  0.00     0.010 A 
HETATM   15  C31 UNL     1      17.393   9.387  -9.050  1.00  0.00     0.001 A 
HETATM   16  C32 UNL     1      18.285   6.869  -8.318  1.00  0.00     0.036 A 
HETATM   17  C33 UNL     1      17.228   6.966  -9.224  1.00  0.00     0.030 A 
HETATM   18  C34 UNL     1      16.766   8.242  -9.576  1.00  0.00     0.002 A 
HETATM   19  H22 UNL     1      25.139   5.839  -8.619  1.00  0.00     0.163 HD
HETATM   20  H31 UNL     1      18.759   4.737  -8.365  1.00  0.00     0.161 HD
ENDROOT
BRANCH   1  21
HETATM   21  C14 UNL     1      19.791   7.828  -5.336  1.00  0.00     0.045 C 
HETATM   22  C7  UNL     1      20.029   6.533  -4.480  1.00  0.00     0.202 C 
HETATM   23  N1  UNL     1      18.868   6.418  -3.613  1.00  0.00    -0.314 N 
HETATM   24  N2  UNL     1      21.223   6.781  -3.679  1.00  0.00    -0.367 N 
HETATM   25  C6  UNL     1      18.560   5.248  -2.846  1.00  0.00     0.245 C 
HETATM   26  C36 UNL     1      17.983   7.568  -3.687  1.00  0.00     0.182 C 
HETATM   27  C1  UNL     1      17.188   5.117  -2.215  1.00  0.00     0.177 C 
HETATM   28  O1  UNL     1      19.454   4.384  -2.635  1.00  0.00    -0.271 OA
HETATM   29  N6  UNL     1      16.211   5.879  -3.005  1.00  0.00    -0.346 N 
HETATM   30  C37 UNL     1      16.546   7.135  -3.609  1.00  0.00     0.241 C 
HETATM   31  H38 UNL     1      15.224   5.548  -3.094  1.00  0.00     0.163 HD
HETATM   32  O4  UNL     1      15.629   7.886  -4.036  1.00  0.00    -0.271 OA
HETATM   33  C35 UNL     1      18.338   8.263  -5.003  1.00  0.00     0.054 C 
HETATM   34  C8  UNL     1      21.594   8.132  -3.822  1.00  0.00     0.036 A 
HETATM   35  H15 UNL     1      21.638   6.114  -2.988  1.00  0.00     0.161 HD
HETATM   36  C9  UNL     1      22.556   8.796  -3.062  1.00  0.00     0.030 A 
HETATM   37  C13 UNL     1      20.789   8.790  -4.719  1.00  0.00    -0.018 A 
HETATM   38  C10 UNL     1      22.687  10.183  -3.218  1.00  0.00     0.002 A 
HETATM   39  C11 UNL     1      21.830  10.879  -4.089  1.00  0.00     0.001 A 
HETATM   40  C12 UNL     1      20.854  10.186  -4.824  1.00  0.00     0.010 A 
BRANCH  27  41
HETATM   41  C2  UNL     1      16.724   3.638  -2.075  1.00  0.00     0.038 C 
BRANCH  41  42
HETATM   42  C3  UNL     1      15.862   3.374  -0.815  1.00  0.00    -0.020 C 
HETATM   43  C4  UNL     1      15.962   4.504   0.220  1.00  0.00     0.009 C 
HETATM   44  C5  UNL     1      14.397   3.165  -1.214  1.00  0.00     0.009 C 
ENDBRANCH  41  42
ENDBRANCH  27  41
ENDBRANCH   1  21
BRANCH   7  45
HETATM   45  C20 UNL     1      24.118   3.387  -8.153  1.00  0.00     0.073 C 
BRANCH  45  46
HETATM   46  C21 UNL     1      25.272   2.875  -8.984  1.00  0.00    -0.056 A 
HETATM   47  C22 UNL     1      25.039   2.254 -10.225  1.00  0.00     0.007 A 
HETATM   48  C23 UNL     1      26.107   1.778 -10.988  1.00  0.00     0.001 A 
HETATM   49  C24 UNL     1      27.418   1.914 -10.521  1.00  0.00     0.000 A 
HETATM   50  C25 UNL     1      27.659   2.518  -9.284  1.00  0.00     0.001 A 
HETATM   51  C26 UNL     1      26.593   3.004  -8.521  1.00  0.00     0.007 A 
ENDBRANCH  45  46
ENDBRANCH   7  45
TORSDOF 5
ENDMDL
MODEL 17
REMARK VINA RESULT:      -9.9      1.241      8.619
REMARK  5 active torsions:
REMARK  status: ('A' for Active; 'I' for Inactive)
REMARK    1  A    between atoms: C1_1  and  C2_2 
REMARK    2  A    between atoms: C2_2  and  C3_3 
REMARK    3  A    between atoms: C14_17  and  C15_18 
REMARK    4  A    between atoms: C19_24  and  C20_25 
REMARK    5  A    between atoms: C20_25  and  C21_26 
ROOT
HETATM    1  C15 UNL     1      20.993   8.626  -6.600  1.00  0.00     0.045 C 
HETATM    2  C16 UNL     1      21.625   9.094  -7.938  1.00  0.00     0.054 C 
HETATM    3  C17 UNL     1      20.795  10.292  -8.403  1.00  0.00     0.182 C 
HETATM    4  C18 UNL     1      20.612  10.356  -9.892  1.00  0.00     0.241 C 
HETATM    5  O2  UNL     1      21.574  10.077 -10.659  1.00  0.00    -0.271 OA
HETATM    6  N3  UNL     1      19.373  10.811 -10.447  1.00  0.00    -0.346 N 
HETATM    7  C19 UNL     1      18.254  11.301  -9.630  1.00  0.00     0.181 C 
HETATM    8  C27 UNL     1      18.321  10.781  -8.213  1.00  0.00     0.245 C 
HETATM    9  O3  UNL     1      17.334  10.921  -7.442  1.00  0.00    -0.271 OA
HETATM   10  N4  UNL     1      19.517  10.158  -7.731  1.00  0.00    -0.314 N 
HETATM   11  C28 UNL     1      19.556   9.258  -6.592  1.00  0.00     0.202 C 
HETATM   12  N5  UNL     1      19.447  10.021  -5.351  1.00  0.00    -0.367 N 
HETATM   13  C29 UNL     1      21.643   9.332  -5.426  1.00  0.00    -0.018 A 
HETATM   14  C30 UNL     1      23.003   9.443  -5.104  1.00  0.00     0.010 A 
HETATM   15  C31 UNL     1      23.379  10.231  -4.005  1.00  0.00     0.001 A 
HETATM   16  C32 UNL     1      20.714  10.072  -4.740  1.00  0.00     0.036 A 
HETATM   17  C33 UNL     1      21.060  10.879  -3.656  1.00  0.00     0.030 A 
HETATM   18  C34 UNL     1      22.408  10.940  -3.274  1.00  0.00     0.002 A 
HETATM   19  H22 UNL     1      19.337  10.961 -11.481  1.00  0.00     0.163 HD
HETATM   20  H31 UNL     1      18.611  10.574  -5.054  1.00  0.00     0.161 HD
ENDROOT
BRANCH   1  21
HETATM   21  C14 UNL     1      20.945   7.048  -6.437  1.00  0.00     0.045 C 
HETATM   22  C7  UNL     1      19.517   6.471  -6.744  1.00  0.00     0.202 C 
HETATM   23  N1  UNL     1      19.209   5.581  -5.636  1.00  0.00    -0.314 N 
HETATM   24  N2  UNL     1      19.638   5.702  -7.978  1.00  0.00    -0.367 N 
HETATM   25  C6  UNL     1      17.906   5.038  -5.390  1.00  0.00     0.245 C 
HETATM   26  C36 UNL     1      20.328   5.385  -4.731  1.00  0.00     0.182 C 
HETATM   27  C1  UNL     1      17.622   4.371  -4.058  1.00  0.00     0.177 C 
HETATM   28  O1  UNL     1      17.041   5.045  -6.307  1.00  0.00    -0.271 OA
HETATM   29  N6  UNL     1      18.496   4.946  -3.026  1.00  0.00    -0.346 N 
HETATM   30  C37 UNL     1      19.852   5.314  -3.307  1.00  0.00     0.241 C 
HETATM   31  H38 UNL     1      18.163   5.044  -2.041  1.00  0.00     0.163 HD
HETATM   32  O4  UNL     1      20.648   5.540  -2.356  1.00  0.00    -0.271 OA
HETATM   33  C35 UNL     1      21.272   6.560  -5.000  1.00  0.00     0.054 C 
HETATM   34  C8  UNL     1      21.000   5.603  -8.319  1.00  0.00     0.036 A 
HETATM   35  H15 UNL     1      18.861   5.176  -8.441  1.00  0.00     0.161 HD
HETATM   36  C9  UNL     1      21.531   4.782  -9.314  1.00  0.00     0.030 A 
HETATM   37  C13 UNL     1      21.797   6.312  -7.455  1.00  0.00    -0.018 A 
HETATM   38  C10 UNL     1      22.925   4.675  -9.416  1.00  0.00     0.002 A 
HETATM   39  C11 UNL     1      23.752   5.348  -8.499  1.00  0.00     0.001 A 
HETATM   40  C12 UNL     1      23.188   6.149  -7.493  1.00  0.00     0.010 A 
BRANCH  27  41
HETATM   41  C2  UNL     1      16.133   4.494  -3.625  1.00  0.00     0.038 C 
BRANCH  41  42
HETATM   42  C3  UNL     1      15.913   4.330  -2.100  1.00  0.00    -0.020 C 
HETATM   43  C4  UNL     1      15.189   5.530  -1.472  1.00  0.00     0.009 C 
HETATM   44  C5  UNL     1      15.128   3.044  -1.817  1.00  0.00     0.009 C 
ENDBRANCH  41  42
ENDBRANCH  27  41
ENDBRANCH   1  21
BRANCH   7  45
HETATM   45  C20 UNL     1      16.911  10.940 -10.303  1.00  0.00     0.073 C 
BRANCH  45  46
HETATM   46  C21 UNL     1      16.252  12.122 -10.979  1.00  0.00    -0.056 A 
HETATM   47  C22 UNL     1      14.972  11.996 -11.549  1.00  0.00     0.007 A 
HETATM   48  C23 UNL     1      14.369  13.089 -12.176  1.00  0.00     0.001 A 
HETATM   49  C24 UNL     1      15.036  14.315 -12.244  1.00  0.00     0.000 A 
HETATM   50  C25 UNL     1      16.313  14.446 -11.691  1.00  0.00     0.001 A 
HETATM   51  C26 UNL     1      16.917  13.358 -11.055  1.00  0.00     0.007 A 
ENDBRANCH  45  46
ENDBRANCH   7  45
TORSDOF 5
ENDMDL
MODEL 18
REMARK VINA RESULT:      -9.8      1.805      8.716
REMARK  5 active torsions:
REMARK  status: ('A' for Active; 'I' for Inactive)
REMARK    1  A    between atoms: C1_1  and  C2_2 
REMARK    2  A    between atoms: C2_2  and  C3_3 
REMARK    3  A    between atoms: C14_17  and  C15_18 
REMARK    4  A    between atoms: C19_24  and  C20_25 
REMARK    5  A    between atoms: C20_25  and  C21_26 
ROOT
HETATM    1  C15 UNL     1      20.336   8.342  -7.082  1.00  0.00     0.045 C 
HETATM    2  C16 UNL     1      19.078   8.077  -7.952  1.00  0.00     0.054 C 
HETATM    3  C17 UNL     1      19.185   9.023  -9.150  1.00  0.00     0.182 C 
HETATM    4  C18 UNL     1      17.863   9.576  -9.600  1.00  0.00     0.241 C 
HETATM    5  O2  UNL     1      16.844   8.833  -9.628  1.00  0.00    -0.271 OA
HETATM    6  N3  UNL     1      17.770  10.924 -10.074  1.00  0.00    -0.346 N 
HETATM    7  C19 UNL     1      18.933  11.811 -10.219  1.00  0.00     0.181 C 
HETATM    8  C27 UNL     1      20.084  11.378  -9.342  1.00  0.00     0.245 C 
HETATM    9  O3  UNL     1      21.073  12.142  -9.177  1.00  0.00    -0.271 OA
HETATM   10  N4  UNL     1      20.072  10.087  -8.723  1.00  0.00    -0.314 N 
HETATM   11  C28 UNL     1      20.864   9.743  -7.555  1.00  0.00     0.202 C 
HETATM   12  N5  UNL     1      22.259   9.552  -7.939  1.00  0.00    -0.367 N 
HETATM   13  C29 UNL     1      21.474   7.432  -7.499  1.00  0.00    -0.018 A 
HETATM   14  C30 UNL     1      21.484   6.037  -7.641  1.00  0.00     0.010 A 
HETATM   15  C31 UNL     1      22.642   5.412  -8.132  1.00  0.00     0.001 A 
HETATM   16  C32 UNL     1      22.543   8.173  -7.937  1.00  0.00     0.036 A 
HETATM   17  C33 UNL     1      23.699   7.580  -8.447  1.00  0.00     0.030 A 
HETATM   18  C34 UNL     1      23.753   6.182  -8.524  1.00  0.00     0.002 A 
HETATM   19  H22 UNL     1      16.860  11.223 -10.494  1.00  0.00     0.163 HD
HETATM   20  H31 UNL     1      22.891  10.297  -8.311  1.00  0.00     0.161 HD
ENDROOT
BRANCH   1  21
HETATM   21  C14 UNL     1      20.048   8.315  -5.522  1.00  0.00     0.045 C 
HETATM   22  C7  UNL     1      20.070   6.853  -4.948  1.00  0.00     0.202 C 
HETATM   23  N1  UNL     1      18.863   6.729  -4.149  1.00  0.00    -0.314 N 
HETATM   24  N2  UNL     1      21.245   6.766  -4.087  1.00  0.00    -0.367 N 
HETATM   25  C6  UNL     1      18.365   5.481  -3.648  1.00  0.00     0.245 C 
HETATM   26  C36 UNL     1      18.141   7.981  -4.002  1.00  0.00     0.182 C 
HETATM   27  C1  UNL     1      16.958   5.418  -3.088  1.00  0.00     0.177 C 
HETATM   28  O1  UNL     1      19.126   4.477  -3.601  1.00  0.00    -0.271 OA
HETATM   29  N6  UNL     1      16.130   6.453  -3.723  1.00  0.00    -0.346 N 
HETATM   30  C37 UNL     1      16.657   7.745  -4.046  1.00  0.00     0.241 C 
HETATM   31  H38 UNL     1      15.114   6.286  -3.901  1.00  0.00     0.163 HD
HETATM   32  O4  UNL     1      15.870   8.687  -4.329  1.00  0.00    -0.271 OA
HETATM   33  C35 UNL     1      18.650   8.872  -5.137  1.00  0.00     0.054 C 
HETATM   34  C8  UNL     1      21.797   8.053  -3.939  1.00  0.00     0.036 A 
HETATM   35  H15 UNL     1      21.533   5.922  -3.541  1.00  0.00     0.161 HD
HETATM   36  C9  UNL     1      22.799   8.409  -3.037  1.00  0.00     0.030 A 
HETATM   37  C13 UNL     1      21.131   8.984  -4.697  1.00  0.00    -0.018 A 
HETATM   38  C10 UNL     1      23.119   9.767  -2.899  1.00  0.00     0.002 A 
HETATM   39  C11 UNL     1      22.405  10.737  -3.625  1.00  0.00     0.001 A 
HETATM   40  C12 UNL     1      21.385  10.350  -4.508  1.00  0.00     0.010 A 
BRANCH  27  41
HETATM   41  C2  UNL     1      16.297   4.021  -3.267  1.00  0.00     0.038 C 
BRANCH  41  42
HETATM   42  C3  UNL     1      15.830   3.379  -1.937  1.00  0.00    -0.020 C 
HETATM   43  C4  UNL     1      16.719   3.766  -0.746  1.00  0.00     0.009 C 
HETATM   44  C5  UNL     1      14.376   3.769  -1.647  1.00  0.00     0.009 C 
ENDBRANCH  41  42
ENDBRANCH  27  41
ENDBRANCH   1  21
BRANCH   7  45
HETATM   45  C20 UNL     1      18.521  13.273  -9.934  1.00  0.00     0.073 C 
BRANCH  45  46
HETATM   46  C21 UNL     1      18.351  14.095 -11.192  1.00  0.00    -0.056 A 
HETATM   47  C22 UNL     1      18.281  13.469 -12.450  1.00  0.00     0.007 A 
HETATM   48  C23 UNL     1      18.128  14.232 -13.610  1.00  0.00     0.001 A 
HETATM   49  C24 UNL     1      18.046  15.625 -13.527  1.00  0.00     0.000 A 
HETATM   50  C25 UNL     1      18.127  16.257 -12.283  1.00  0.00     0.001 A 
HETATM   51  C26 UNL     1      18.272  15.496 -11.119  1.00  0.00     0.007 A 
ENDBRANCH  45  46
ENDBRANCH   7  45
TORSDOF 5
ENDMDL
MODEL 19
REMARK VINA RESULT:      -9.8      3.452      7.306
REMARK  5 active torsions:
REMARK  status: ('A' for Active; 'I' for Inactive)
REMARK    1  A    between atoms: C1_1  and  C2_2 
REMARK    2  A    between atoms: C2_2  and  C3_3 
REMARK    3  A    between atoms: C14_17  and  C15_18 
REMARK    4  A    between atoms: C19_24  and  C20_25 
REMARK    5  A    between atoms: C20_25  and  C21_26 
ROOT
HETATM    1  C15 UNL     1      20.393   7.353  -7.659  1.00  0.00     0.045 C 
HETATM    2  C16 UNL     1      20.042   5.889  -8.040  1.00  0.00     0.054 C 
HETATM    3  C17 UNL     1      19.320   5.964  -9.386  1.00  0.00     0.182 C 
HETATM    4  C18 UNL     1      18.209   4.964  -9.528  1.00  0.00     0.241 C 
HETATM    5  O2  UNL     1      18.358   3.788  -9.096  1.00  0.00    -0.271 OA
HETATM    6  N3  UNL     1      17.008   5.315 -10.225  1.00  0.00    -0.346 N 
HETATM    7  C19 UNL     1      16.811   6.610 -10.892  1.00  0.00     0.181 C 
HETATM    8  C27 UNL     1      17.716   7.678 -10.326  1.00  0.00     0.245 C 
HETATM    9  O3  UNL     1      17.529   8.888 -10.627  1.00  0.00    -0.271 OA
HETATM   10  N4  UNL     1      18.810   7.318  -9.475  1.00  0.00    -0.314 N 
HETATM   11  C28 UNL     1      19.450   8.237  -8.549  1.00  0.00     0.202 C 
HETATM   12  N5  UNL     1      20.315   9.157  -9.282  1.00  0.00    -0.367 N 
HETATM   13  C29 UNL     1      21.760   7.731  -8.193  1.00  0.00    -0.018 A 
HETATM   14  C30 UNL     1      22.985   7.069  -8.037  1.00  0.00     0.010 A 
HETATM   15  C31 UNL     1      24.116   7.562  -8.706  1.00  0.00     0.001 A 
HETATM   16  C32 UNL     1      21.655   8.778  -9.074  1.00  0.00     0.036 A 
HETATM   17  C33 UNL     1      22.757   9.278  -9.769  1.00  0.00     0.030 A 
HETATM   18  C34 UNL     1      24.005   8.673  -9.563  1.00  0.00     0.002 A 
HETATM   19  H22 UNL     1      16.319   4.550 -10.410  1.00  0.00     0.163 HD
HETATM   20  H31 UNL     1      19.991   9.872  -9.973  1.00  0.00     0.161 HD
ENDROOT
BRANCH   1  21
HETATM   21  C14 UNL     1      20.212   7.669  -6.114  1.00  0.00     0.045 C 
HETATM   22  C7  UNL     1      20.218   6.360  -5.245  1.00  0.00     0.202 C 
HETATM   23  N1  UNL     1      19.065   6.469  -4.367  1.00  0.00    -0.314 N 
HETATM   24  N2  UNL     1      21.446   6.393  -4.457  1.00  0.00    -0.367 N 
HETATM   25  C6  UNL     1      18.555   5.382  -3.584  1.00  0.00     0.245 C 
HETATM   26  C36 UNL     1      18.404   7.760  -4.447  1.00  0.00     0.182 C 
HETATM   27  C1  UNL     1      17.189   5.512  -2.940  1.00  0.00     0.177 C 
HETATM   28  O1  UNL     1      19.278   4.372  -3.370  1.00  0.00    -0.271 OA
HETATM   29  N6  UNL     1      16.360   6.432  -3.730  1.00  0.00    -0.346 N 
HETATM   30  C37 UNL     1      16.913   7.599  -4.351  1.00  0.00     0.241 C 
HETATM   31  H38 UNL     1      15.328   6.286  -3.807  1.00  0.00     0.163 HD
HETATM   32  O4  UNL     1      16.145   8.502  -4.779  1.00  0.00    -0.271 OA
HETATM   33  C35 UNL     1      18.867   8.366  -5.773  1.00  0.00     0.054 C 
HETATM   34  C8  UNL     1      22.056   7.652  -4.619  1.00  0.00     0.036 A 
HETATM   35  H15 UNL     1      21.738   5.668  -3.762  1.00  0.00     0.161 HD
HETATM   36  C9  UNL     1      23.131   8.136  -3.874  1.00  0.00     0.030 A 
HETATM   37  C13 UNL     1      21.376   8.437  -5.516  1.00  0.00    -0.018 A 
HETATM   38  C10 UNL     1      23.513   9.474  -4.048  1.00  0.00     0.002 A 
HETATM   39  C11 UNL     1      22.789  10.306  -4.919  1.00  0.00     0.001 A 
HETATM   40  C12 UNL     1      21.695   9.797  -5.637  1.00  0.00     0.010 A 
BRANCH  27  41
HETATM   41  C2  UNL     1      16.464   4.144  -2.779  1.00  0.00     0.038 C 
BRANCH  41  42
HETATM   42  C3  UNL     1      15.946   3.881  -1.343  1.00  0.00    -0.020 C 
HETATM   43  C4  UNL     1      14.997   2.676  -1.266  1.00  0.00     0.009 C 
HETATM   44  C5  UNL     1      17.127   3.672  -0.388  1.00  0.00     0.009 C 
ENDBRANCH  41  42
ENDBRANCH  27  41
ENDBRANCH   1  21
BRANCH   7  45
HETATM   45  C20 UNL     1      15.324   7.025 -10.811  1.00  0.00     0.073 C 
BRANCH  45  46
HETATM   46  C21 UNL     1      14.376   5.889 -11.123  1.00  0.00    -0.056 A 
HETATM   47  C22 UNL     1      13.724   5.197 -10.085  1.00  0.00     0.007 A 
HETATM   48  C23 UNL     1      12.852   4.146 -10.377  1.00  0.00     0.001 A 
HETATM   49  C24 UNL     1      12.622   3.773 -11.704  1.00  0.00     0.000 A 
HETATM   50  C25 UNL     1      13.275   4.446 -12.741  1.00  0.00     0.001 A 
HETATM   51  C26 UNL     1      14.142   5.504 -12.454  1.00  0.00     0.007 A 
ENDBRANCH  45  46
ENDBRANCH   7  45
TORSDOF 5
ENDMDL
MODEL 20
REMARK VINA RESULT:      -9.7      2.643      5.761
REMARK  5 active torsions:
REMARK  status: ('A' for Active; 'I' for Inactive)
REMARK    1  A    between atoms: C1_1  and  C2_2 
REMARK    2  A    between atoms: C2_2  and  C3_3 
REMARK    3  A    between atoms: C14_17  and  C15_18 
REMARK    4  A    between atoms: C19_24  and  C20_25 
REMARK    5  A    between atoms: C20_25  and  C21_26 
ROOT
HETATM    1  C15 UNL     1      19.789   8.434  -7.477  1.00  0.00     0.045 C 
HETATM    2  C16 UNL     1      18.240   8.339  -7.453  1.00  0.00     0.054 C 
HETATM    3  C17 UNL     1      17.830   8.474  -5.985  1.00  0.00     0.182 C 
HETATM    4  C18 UNL     1      16.658   7.616  -5.607  1.00  0.00     0.241 C 
HETATM    5  O2  UNL     1      15.682   7.494  -6.397  1.00  0.00    -0.271 OA
HETATM    6  N3  UNL     1      16.604   6.997  -4.316  1.00  0.00    -0.346 N 
HETATM    7  C19 UNL     1      17.622   7.209  -3.277  1.00  0.00     0.181 C 
HETATM    8  C27 UNL     1      18.938   7.664  -3.862  1.00  0.00     0.245 C 
HETATM    9  O3  UNL     1      19.975   7.682  -3.145  1.00  0.00    -0.271 OA
HETATM   10  N4  UNL     1      19.006   8.108  -5.222  1.00  0.00    -0.314 N 
HETATM   11  C28 UNL     1      20.233   8.142  -6.000  1.00  0.00     0.202 C 
HETATM   12  N5  UNL     1      21.054   9.275  -5.583  1.00  0.00    -0.367 N 
HETATM   13  C29 UNL     1      20.232   9.874  -7.650  1.00  0.00    -0.018 A 
HETATM   14  C30 UNL     1      19.849  10.806  -8.624  1.00  0.00     0.010 A 
HETATM   15  C31 UNL     1      20.327  12.123  -8.530  1.00  0.00     0.001 A 
HETATM   16  C32 UNL     1      20.973  10.278  -6.568  1.00  0.00     0.036 A 
HETATM   17  C33 UNL     1      21.445  11.585  -6.437  1.00  0.00     0.030 A 
HETATM   18  C34 UNL     1      21.134  12.510  -7.443  1.00  0.00     0.002 A 
HETATM   19  H22 UNL     1      15.714   6.517  -4.050  1.00  0.00     0.163 HD
HETATM   20  H31 UNL     1      21.493   9.389  -4.641  1.00  0.00     0.161 HD
ENDROOT
BRANCH   1  21
HETATM   21  C14 UNL     1      20.472   7.438  -8.507  1.00  0.00     0.045 C 
HETATM   22  C7  UNL     1      19.553   7.163  -9.751  1.00  0.00     0.202 C 
HETATM   23  N1  UNL     1      19.540   5.719  -9.915  1.00  0.00    -0.314 N 
HETATM   24  N2  UNL     1      20.210   7.786 -10.895  1.00  0.00    -0.367 N 
HETATM   25  C6  UNL     1      18.630   5.024 -10.777  1.00  0.00     0.245 C 
HETATM   26  C36 UNL     1      20.466   5.034  -9.030  1.00  0.00     0.182 C 
HETATM   27  C1  UNL     1      18.498   3.519 -10.654  1.00  0.00     0.177 C 
HETATM   28  O1  UNL     1      18.017   5.655 -11.679  1.00  0.00    -0.271 OA
HETATM   29  N6  UNL     1      18.826   3.109  -9.281  1.00  0.00    -0.346 N 
HETATM   30  C37 UNL     1      19.870   3.746  -8.534  1.00  0.00     0.241 C 
HETATM   31  H38 UNL     1      18.340   2.297  -8.838  1.00  0.00     0.163 HD
HETATM   32  O4  UNL     1      20.308   3.202  -7.486  1.00  0.00    -0.271 OA
HETATM   33  C35 UNL     1      20.767   6.034  -7.912  1.00  0.00     0.054 C 
HETATM   34  C8  UNL     1      21.491   8.220 -10.503  1.00  0.00     0.036 A 
HETATM   35  H15 UNL     1      19.857   7.767 -11.880  1.00  0.00     0.161 HD
HETATM   36  C9  UNL     1      22.492   8.678 -11.359  1.00  0.00     0.030 A 
HETATM   37  C13 UNL     1      21.714   8.009  -9.165  1.00  0.00    -0.018 A 
HETATM   38  C10 UNL     1      23.767   8.915 -10.826  1.00  0.00     0.002 A 
HETATM   39  C11 UNL     1      24.025   8.647  -9.471  1.00  0.00     0.001 A 
HETATM   40  C12 UNL     1      23.004   8.163  -8.638  1.00  0.00     0.010 A 
BRANCH  27  41
HETATM   41  C2  UNL     1      17.082   3.002 -11.041  1.00  0.00     0.038 C 
BRANCH  41  42
HETATM   42  C3  UNL     1      16.084   2.977  -9.856  1.00  0.00    -0.020 C 
HETATM   43  C4  UNL     1      15.387   4.328  -9.639  1.00  0.00     0.009 C 
HETATM   44  C5  UNL     1      15.034   1.882 -10.076  1.00  0.00     0.009 C 
ENDBRANCH  41  42
ENDBRANCH  27  41
ENDBRANCH   1  21
BRANCH   7  45
HETATM   45  C20 UNL     1      17.790   5.926  -2.433  1.00  0.00     0.073 C 
BRANCH  45  46
HETATM   46  C21 UNL     1      16.471   5.285  -2.062  1.00  0.00    -0.056 A 
HETATM   47  C22 UNL     1      15.540   5.976  -1.265  1.00  0.00     0.007 A 
HETATM   48  C23 UNL     1      14.325   5.379  -0.922  1.00  0.00     0.001 A 
HETATM   49  C24 UNL     1      14.027   4.088  -1.367  1.00  0.00     0.000 A 
HETATM   50  C25 UNL     1      14.951   3.389  -2.149  1.00  0.00     0.001 A 
HETATM   51  C26 UNL     1      16.164   3.986  -2.503  1.00  0.00     0.007 A 
ENDBRANCH  45  46
ENDBRANCH   7  45
TORSDOF 5
ENDMDL
