REMARK  4 active torsions:
REMARK  status: ('A' for Active; 'I' for Inactive)
REMARK    1  A    between atoms: C6_7  and  C36_47 
REMARK    2  A    between atoms: C16_22  and  C17_23 
REMARK    3  A    between atoms: C17_23  and  C18_24 
REMARK    4  A    between atoms: C36_47  and  C37_48 
ROOT
HETATM    1  C1  UNL     1      -0.268  -3.184   0.939  1.00  0.00     0.179 C 
HETATM    2  N1  UNL     1       0.981  -3.386   1.681  1.00  0.00    -0.337 N 
HETATM    3  C2  UNL     1       0.864  -4.504   2.609  1.00  0.00     0.127 C 
HETATM    4  C3  UNL     1      -0.525  -5.088   2.400  1.00  0.00     0.022 C 
HETATM    5  C4  UNL     1      -0.978  -4.532   1.060  1.00  0.00     0.037 C 
HETATM    6  C5  UNL     1       2.284  -2.831   1.366  1.00  0.00     0.243 C 
HETATM    7  C6  UNL     1       2.510  -1.791   0.284  1.00  0.00     0.181 C 
HETATM    8  N2  UNL     1       3.561  -0.849   0.708  1.00  0.00    -0.343 N 
HETATM    9  C7  UNL     1       3.362   0.338   1.487  1.00  0.00     0.254 C 
HETATM   10  C8  UNL     1       2.155   0.556   2.290  1.00  0.00     0.058 A 
HETATM   11  C9  UNL     1       1.251   1.637   2.076  1.00  0.00     0.050 A 
HETATM   12  N3  UNL     1       1.273   2.508   0.919  1.00  0.00    -0.324 N 
HETATM   13  C10 UNL     1       2.213   2.483  -0.159  1.00  0.00     0.245 C 
HETATM   14  O1  UNL     1       3.295   3.121  -0.039  1.00  0.00    -0.271 OA
HETATM   15  C11 UNL     1       1.930   1.678  -1.406  1.00  0.00     0.179 C 
HETATM   16  N4  UNL     1       0.563   1.857  -1.899  1.00  0.00    -0.337 N 
HETATM   17  C12 UNL     1       0.553   1.968  -3.357  1.00  0.00     0.127 C 
HETATM   18  C13 UNL     1       1.986   1.731  -3.808  1.00  0.00     0.022 C 
HETATM   19  C14 UNL     1       2.835   2.036  -2.586  1.00  0.00     0.037 C 
HETATM   20  C15 UNL     1      -0.543   1.243  -1.218  1.00  0.00     0.243 C 
HETATM   21  O2  UNL     1      -0.405   0.074  -0.785  1.00  0.00    -0.271 OA
HETATM   22  C16 UNL     1      -1.897   1.900  -1.045  1.00  0.00     0.181 C 
HETATM   23  N5  UNL     1      -2.275   1.882   0.378  1.00  0.00    -0.343 N 
HETATM   24  C24 UNL     1      -2.824   0.756   1.076  1.00  0.00     0.254 C 
HETATM   25  O3  UNL     1      -2.705   0.708   2.329  1.00  0.00    -0.268 OA
HETATM   26  C25 UNL     1      -3.581  -0.317   0.396  1.00  0.00     0.058 A 
HETATM   27  C26 UNL     1      -4.589   0.043  -0.519  1.00  0.00     0.019 A 
HETATM   28  C27 UNL     1      -5.414  -0.929  -1.091  1.00  0.00     0.001 A 
HETATM   29  C28 UNL     1      -5.264  -2.267  -0.733  1.00  0.00     0.002 A 
HETATM   30  C29 UNL     1      -4.298  -2.636   0.206  1.00  0.00     0.030 A 
HETATM   31  C30 UNL     1      -3.437  -1.680   0.767  1.00  0.00     0.050 A 
HETATM   32  N6  UNL     1      -2.480  -2.113   1.749  1.00  0.00    -0.324 N 
HETATM   33  C31 UNL     1      -1.064  -2.029   1.521  1.00  0.00     0.245 C 
HETATM   34  O4  UNL     1      -0.473  -0.949   1.769  1.00  0.00    -0.271 OA
HETATM   35  C32 UNL     1       0.247   1.870   3.036  1.00  0.00     0.030 A 
HETATM   36  C33 UNL     1       0.118   1.055   4.161  1.00  0.00     0.002 A 
HETATM   37  C34 UNL     1       0.997  -0.006   4.356  1.00  0.00     0.001 A 
HETATM   38  C35 UNL     1       2.014  -0.247   3.435  1.00  0.00     0.019 A 
HETATM   39  O5  UNL     1       4.319   1.150   1.611  1.00  0.00    -0.268 OA
HETATM   40  O6  UNL     1       3.290  -3.247   2.001  1.00  0.00    -0.271 OA
HETATM   41  H9  UNL     1       4.552  -1.055   0.439  1.00  0.00     0.163 HD
HETATM   42  H10 UNL     1       0.541   3.249   0.856  1.00  0.00     0.169 HD
HETATM   43  H26 UNL     1      -1.827   2.596   0.992  1.00  0.00     0.163 HD
HETATM   44  H31 UNL     1      -2.802  -2.821   2.446  1.00  0.00     0.169 HD
ENDROOT
BRANCH   7  45
HETATM   45  C36 UNL     1       2.992  -2.458  -1.025  1.00  0.00     0.073 C 
BRANCH  45  46
HETATM   46  C37 UNL     1       1.929  -3.260  -1.725  1.00  0.00    -0.056 A 
HETATM   47  C38 UNL     1       1.840  -4.648  -1.527  1.00  0.00     0.007 A 
HETATM   48  C39 UNL     1       0.846  -5.389  -2.177  1.00  0.00     0.001 A 
HETATM   49  C40 UNL     1      -0.076  -4.749  -3.011  1.00  0.00     0.000 A 
HETATM   50  C41 UNL     1       0.011  -3.367  -3.214  1.00  0.00     0.001 A 
HETATM   51  C42 UNL     1       1.008  -2.622  -2.575  1.00  0.00     0.007 A 
ENDBRANCH  45  46
ENDBRANCH   7  45
BRANCH  22  52
HETATM   52  C17 UNL     1      -2.064   3.326  -1.645  1.00  0.00     0.073 C 
BRANCH  52  53
HETATM   53  C18 UNL     1      -1.435   4.454  -0.853  1.00  0.00    -0.056 A 
HETATM   54  C19 UNL     1      -0.158   4.942  -1.174  1.00  0.00     0.007 A 
HETATM   55  C20 UNL     1       0.403   5.991  -0.437  1.00  0.00     0.001 A 
HETATM   56  C21 UNL     1      -0.307   6.568   0.615  1.00  0.00     0.000 A 
HETATM   57  C22 UNL     1      -1.582   6.101   0.933  1.00  0.00     0.001 A 
HETATM   58  C23 UNL     1      -2.150   5.058   0.195  1.00  0.00     0.007 A 
ENDBRANCH  52  53
ENDBRANCH  22  52
TORSDOF 4
