MODEL 1
REMARK VINA RESULT:     -11.8      0.000      0.000
REMARK  4 active torsions:
REMARK  status: ('A' for Active; 'I' for Inactive)
REMARK    1  A    between atoms: C6_7  and  C36_47 
REMARK    2  A    between atoms: C16_22  and  C17_23 
REMARK    3  A    between atoms: C17_23  and  C18_24 
REMARK    4  A    between atoms: C36_47  and  C37_48 
ROOT
HETATM    1  C1  UNL     1      20.525  10.113  -8.013  1.00  0.00     0.179 C 
HETATM    2  N1  UNL     1      19.558  10.405  -9.076  1.00  0.00    -0.337 N 
HETATM    3  C2  UNL     1      19.504  11.834  -9.358  1.00  0.00     0.127 C 
HETATM    4  C3  UNL     1      20.546  12.485  -8.461  1.00  0.00     0.022 C 
HETATM    5  C4  UNL     1      21.439  11.338  -8.014  1.00  0.00     0.037 C 
HETATM    6  C5  UNL     1      18.956   9.456  -9.994  1.00  0.00     0.243 C 
HETATM    7  C6  UNL     1      19.119   7.953  -9.868  1.00  0.00     0.181 C 
HETATM    8  N2  UNL     1      17.871   7.279 -10.270  1.00  0.00    -0.343 N 
HETATM    9  C7  UNL     1      16.755   6.999  -9.415  1.00  0.00     0.254 C 
HETATM   10  C8  UNL     1      16.549   7.692  -8.140  1.00  0.00     0.058 A 
HETATM   11  C9  UNL     1      16.520   7.029  -6.879  1.00  0.00     0.050 A 
HETATM   12  N3  UNL     1      16.912   5.651  -6.667  1.00  0.00    -0.324 N 
HETATM   13  C10 UNL     1      17.332   4.713  -7.663  1.00  0.00     0.245 C 
HETATM   14  O1  UNL     1      16.456   4.049  -8.282  1.00  0.00    -0.271 OA
HETATM   15  C11 UNL     1      18.798   4.547  -7.991  1.00  0.00     0.179 C 
HETATM   16  N4  UNL     1      19.641   4.465  -6.797  1.00  0.00    -0.337 N 
HETATM   17  C12 UNL     1      20.669   3.438  -6.964  1.00  0.00     0.127 C 
HETATM   18  C13 UNL     1      20.528   2.928  -8.389  1.00  0.00     0.022 C 
HETATM   19  C14 UNL     1      19.107   3.280  -8.792  1.00  0.00     0.037 C 
HETATM   20  C15 UNL     1      19.920   5.642  -6.021  1.00  0.00     0.243 C 
HETATM   21  O2  UNL     1      20.154   6.716  -6.625  1.00  0.00    -0.271 OA
HETATM   22  C16 UNL     1      20.014   5.652  -4.509  1.00  0.00     0.181 C 
HETATM   23  N5  UNL     1      19.126   6.694  -3.968  1.00  0.00    -0.343 N 
HETATM   24  C24 UNL     1      19.428   8.095  -3.914  1.00  0.00     0.254 C 
HETATM   25  O3  UNL     1      18.473   8.914  -3.845  1.00  0.00    -0.268 OA
HETATM   26  C25 UNL     1      20.811   8.616  -3.870  1.00  0.00     0.058 A 
HETATM   27  C26 UNL     1      21.723   8.034  -2.968  1.00  0.00     0.019 A 
HETATM   28  C27 UNL     1      23.002   8.572  -2.800  1.00  0.00     0.001 A 
HETATM   29  C28 UNL     1      23.375   9.714  -3.505  1.00  0.00     0.002 A 
HETATM   30  C29 UNL     1      22.467  10.328  -4.371  1.00  0.00     0.030 A 
HETATM   31  C30 UNL     1      21.190   9.785  -4.580  1.00  0.00     0.050 A 
HETATM   32  N6  UNL     1      20.288  10.476  -5.462  1.00  0.00    -0.324 N 
HETATM   33  C31 UNL     1      19.821   9.887  -6.686  1.00  0.00     0.245 C 
HETATM   34  O4  UNL     1      18.824   9.125  -6.651  1.00  0.00    -0.271 OA
HETATM   35  C32 UNL     1      16.105   7.759  -5.748  1.00  0.00     0.030 A 
HETATM   36  C33 UNL     1      15.752   9.105  -5.845  1.00  0.00     0.002 A 
HETATM   37  C34 UNL     1      15.795   9.749  -7.078  1.00  0.00     0.001 A 
HETATM   38  C35 UNL     1      16.180   9.046  -8.218  1.00  0.00     0.019 A 
HETATM   39  O5  UNL     1      15.837   6.247  -9.843  1.00  0.00    -0.268 OA
HETATM   40  O6  UNL     1      18.282   9.895 -10.965  1.00  0.00    -0.271 OA
HETATM   41  H9  UNL     1      17.764   6.984 -11.269  1.00  0.00     0.163 HD
HETATM   42  H10 UNL     1      16.877   5.281  -5.692  1.00  0.00     0.169 HD
HETATM   43  H26 UNL     1      18.109   6.468  -3.924  1.00  0.00     0.163 HD
HETATM   44  H31 UNL     1      20.277  11.519  -5.408  1.00  0.00     0.169 HD
ENDROOT
BRANCH   7  45
HETATM   45  C36 UNL     1      20.238   7.443 -10.805  1.00  0.00     0.073 C 
BRANCH  45  46
HETATM   46  C37 UNL     1      21.623   7.829 -10.363  1.00  0.00    -0.056 A 
HETATM   47  C38 UNL     1      22.306   8.879 -11.000  1.00  0.00     0.007 A 
HETATM   48  C39 UNL     1      23.593   9.237 -10.581  1.00  0.00     0.001 A 
HETATM   49  C40 UNL     1      24.198   8.566  -9.515  1.00  0.00     0.000 A 
HETATM   50  C41 UNL     1      23.523   7.516  -8.880  1.00  0.00     0.001 A 
HETATM   51  C42 UNL     1      22.241   7.147  -9.299  1.00  0.00     0.007 A 
ENDBRANCH  45  46
ENDBRANCH   7  45
BRANCH  22  52
HETATM   52  C17 UNL     1      19.782   4.295  -3.785  1.00  0.00     0.073 C 
BRANCH  52  53
HETATM   53  C18 UNL     1      18.522   4.199  -2.949  1.00  0.00    -0.056 A 
HETATM   54  C19 UNL     1      17.254   4.145  -3.551  1.00  0.00     0.007 A 
HETATM   55  C20 UNL     1      16.102   4.047  -2.763  1.00  0.00     0.001 A 
HETATM   56  C21 UNL     1      16.204   3.990  -1.374  1.00  0.00     0.000 A 
HETATM   57  C22 UNL     1      17.459   4.028  -0.766  1.00  0.00     0.001 A 
HETATM   58  C23 UNL     1      18.614   4.118  -1.550  1.00  0.00     0.007 A 
ENDBRANCH  52  53
ENDBRANCH  22  52
TORSDOF 4
ENDMDL
MODEL 2
REMARK VINA RESULT:     -11.1      0.890      1.288
REMARK  4 active torsions:
REMARK  status: ('A' for Active; 'I' for Inactive)
REMARK    1  A    between atoms: C6_7  and  C36_47 
REMARK    2  A    between atoms: C16_22  and  C17_23 
REMARK    3  A    between atoms: C17_23  and  C18_24 
REMARK    4  A    between atoms: C36_47  and  C37_48 
ROOT
HETATM    1  C1  UNL     1      20.558  10.782  -8.387  1.00  0.00     0.179 C 
HETATM    2  N1  UNL     1      19.667  11.070  -9.516  1.00  0.00    -0.337 N 
HETATM    3  C2  UNL     1      19.541  12.506  -9.732  1.00  0.00     0.127 C 
HETATM    4  C3  UNL     1      20.458  13.171  -8.717  1.00  0.00     0.022 C 
HETATM    5  C4  UNL     1      21.384  12.061  -8.249  1.00  0.00     0.037 C 
HETATM    6  C5  UNL     1      19.209  10.136 -10.528  1.00  0.00     0.243 C 
HETATM    7  C6  UNL     1      19.462   8.641 -10.461  1.00  0.00     0.181 C 
HETATM    8  N2  UNL     1      18.300   7.913 -11.002  1.00  0.00    -0.343 N 
HETATM    9  C7  UNL     1      17.137   7.518 -10.263  1.00  0.00     0.254 C 
HETATM   10  C8  UNL     1      16.779   8.127  -8.978  1.00  0.00     0.058 A 
HETATM   11  C9  UNL     1      16.688   7.396  -7.758  1.00  0.00     0.050 A 
HETATM   12  N3  UNL     1      17.153   6.036  -7.580  1.00  0.00    -0.324 N 
HETATM   13  C10 UNL     1      17.717   5.182  -8.579  1.00  0.00     0.245 C 
HETATM   14  O1  UNL     1      16.943   4.498  -9.303  1.00  0.00    -0.271 OA
HETATM   15  C11 UNL     1      19.213   5.126  -8.785  1.00  0.00     0.179 C 
HETATM   16  N4  UNL     1      19.956   5.033  -7.528  1.00  0.00    -0.337 N 
HETATM   17  C12 UNL     1      21.061   4.083  -7.652  1.00  0.00     0.127 C 
HETATM   18  C13 UNL     1      21.076   3.642  -9.108  1.00  0.00     0.022 C 
HETATM   19  C14 UNL     1      19.673   3.926  -9.616  1.00  0.00     0.037 C 
HETATM   20  C15 UNL     1      20.089   6.181  -6.674  1.00  0.00     0.243 C 
HETATM   21  O2  UNL     1      20.300   7.299  -7.203  1.00  0.00    -0.271 OA
HETATM   22  C16 UNL     1      20.055   6.116  -5.161  1.00  0.00     0.181 C 
HETATM   23  N5  UNL     1      19.056   7.070  -4.650  1.00  0.00    -0.343 N 
HETATM   24  C24 UNL     1      19.257   8.482  -4.502  1.00  0.00     0.254 C 
HETATM   25  O3  UNL     1      18.248   9.235  -4.477  1.00  0.00    -0.268 OA
HETATM   26  C25 UNL     1      20.594   9.085  -4.312  1.00  0.00     0.058 A 
HETATM   27  C26 UNL     1      21.464   8.515  -3.363  1.00  0.00     0.019 A 
HETATM   28  C27 UNL     1      22.685   9.122  -3.058  1.00  0.00     0.001 A 
HETATM   29  C28 UNL     1      23.038  10.321  -3.672  1.00  0.00     0.002 A 
HETATM   30  C29 UNL     1      22.168  10.923  -4.584  1.00  0.00     0.030 A 
HETATM   31  C30 UNL     1      20.952  10.313  -4.929  1.00  0.00     0.050 A 
HETATM   32  N6  UNL     1      20.083  10.992  -5.852  1.00  0.00    -0.324 N 
HETATM   33  C31 UNL     1      19.761  10.442  -7.140  1.00  0.00     0.245 C 
HETATM   34  O4  UNL     1      18.818   9.618  -7.229  1.00  0.00    -0.271 OA
HETATM   35  C32 UNL     1      16.131   8.037  -6.634  1.00  0.00     0.030 A 
HETATM   36  C33 UNL     1      15.698   9.362  -6.697  1.00  0.00     0.002 A 
HETATM   37  C34 UNL     1      15.802  10.072  -7.889  1.00  0.00     0.001 A 
HETATM   38  C35 UNL     1      16.327   9.457  -9.023  1.00  0.00     0.019 A 
HETATM   39  O5  UNL     1      16.311   6.734 -10.805  1.00  0.00    -0.268 OA
HETATM   40  O6  UNL     1      18.591  10.583 -11.531  1.00  0.00    -0.271 OA
HETATM   41  H9  UNL     1      18.298   7.666 -12.019  1.00  0.00     0.163 HD
HETATM   42  H10 UNL     1      17.060   5.613  -6.630  1.00  0.00     0.169 HD
HETATM   43  H26 UNL     1      18.056   6.778  -4.706  1.00  0.00     0.163 HD
HETATM   44  H31 UNL     1      19.997  12.028  -5.749  1.00  0.00     0.169 HD
ENDROOT
BRANCH   7  45
HETATM   45  C36 UNL     1      20.687   8.253 -11.320  1.00  0.00     0.073 C 
BRANCH  45  46
HETATM   46  C37 UNL     1      21.975   8.185 -10.544  1.00  0.00    -0.056 A 
HETATM   47  C38 UNL     1      22.241   7.091  -9.704  1.00  0.00     0.007 A 
HETATM   48  C39 UNL     1      23.443   7.030  -8.988  1.00  0.00     0.001 A 
HETATM   49  C40 UNL     1      24.393   8.047  -9.122  1.00  0.00     0.000 A 
HETATM   50  C41 UNL     1      24.131   9.140  -9.955  1.00  0.00     0.001 A 
HETATM   51  C42 UNL     1      22.928   9.212 -10.666  1.00  0.00     0.007 A 
ENDBRANCH  45  46
ENDBRANCH   7  45
BRANCH  22  52
HETATM   52  C17 UNL     1      19.854   4.710  -4.526  1.00  0.00     0.073 C 
BRANCH  52  53
HETATM   53  C18 UNL     1      19.156   4.685  -3.182  1.00  0.00    -0.056 A 
HETATM   54  C19 UNL     1      19.710   5.331  -2.065  1.00  0.00     0.007 A 
HETATM   55  C20 UNL     1      19.046   5.306  -0.833  1.00  0.00     0.001 A 
HETATM   56  C21 UNL     1      17.823   4.648  -0.708  1.00  0.00     0.000 A 
HETATM   57  C22 UNL     1      17.257   4.016  -1.815  1.00  0.00     0.001 A 
HETATM   58  C23 UNL     1      17.912   4.045  -3.049  1.00  0.00     0.007 A 
ENDBRANCH  52  53
ENDBRANCH  22  52
TORSDOF 4
ENDMDL
MODEL 3
REMARK VINA RESULT:     -10.6      2.141      7.134
REMARK  4 active torsions:
REMARK  status: ('A' for Active; 'I' for Inactive)
REMARK    1  A    between atoms: C6_7  and  C36_47 
REMARK    2  A    between atoms: C16_22  and  C17_23 
REMARK    3  A    between atoms: C17_23  and  C18_24 
REMARK    4  A    between atoms: C36_47  and  C37_48 
ROOT
HETATM    1  C1  UNL     1      19.620   5.506  -4.765  1.00  0.00     0.179 C 
HETATM    2  N1  UNL     1      19.369   4.105  -5.119  1.00  0.00    -0.337 N 
HETATM    3  C2  UNL     1      19.691   3.218  -4.008  1.00  0.00     0.127 C 
HETATM    4  C3  UNL     1      20.116   4.115  -2.855  1.00  0.00     0.022 C 
HETATM    5  C4  UNL     1      19.609   5.496  -3.236  1.00  0.00     0.037 C 
HETATM    6  C5  UNL     1      18.601   3.613  -6.248  1.00  0.00     0.243 C 
HETATM    7  C6  UNL     1      18.075   4.509  -7.354  1.00  0.00     0.181 C 
HETATM    8  N2  UNL     1      18.135   3.799  -8.643  1.00  0.00    -0.343 N 
HETATM    9  C7  UNL     1      19.262   3.756  -9.528  1.00  0.00     0.254 C 
HETATM   10  C8  UNL     1      20.621   4.081  -9.084  1.00  0.00     0.058 A 
HETATM   11  C9  UNL     1      21.390   5.154  -9.621  1.00  0.00     0.050 A 
HETATM   12  N3  UNL     1      20.862   6.187 -10.489  1.00  0.00    -0.324 N 
HETATM   13  C10 UNL     1      19.529   6.285 -10.998  1.00  0.00     0.245 C 
HETATM   14  O1  UNL     1      19.236   5.670 -12.060  1.00  0.00    -0.271 OA
HETATM   15  C11 UNL     1      18.481   7.083 -10.258  1.00  0.00     0.179 C 
HETATM   16  N4  UNL     1      18.973   8.386  -9.808  1.00  0.00    -0.337 N 
HETATM   17  C12 UNL     1      17.958   9.419 -10.018  1.00  0.00     0.127 C 
HETATM   18  C13 UNL     1      16.720   8.697 -10.524  1.00  0.00     0.022 C 
HETATM   19  C14 UNL     1      17.237   7.388 -11.095  1.00  0.00     0.037 C 
HETATM   20  C15 UNL     1      19.872   8.479  -8.691  1.00  0.00     0.243 C 
HETATM   21  O2  UNL     1      19.668   7.743  -7.696  1.00  0.00    -0.271 OA
HETATM   22  C16 UNL     1      21.021   9.463  -8.613  1.00  0.00     0.181 C 
HETATM   23  N5  UNL     1      22.267   8.742  -8.304  1.00  0.00    -0.343 N 
HETATM   24  C24 UNL     1      22.666   8.298  -7.001  1.00  0.00     0.254 C 
HETATM   25  O3  UNL     1      23.492   7.351  -6.914  1.00  0.00    -0.268 OA
HETATM   26  C25 UNL     1      22.202   8.947  -5.756  1.00  0.00     0.058 A 
HETATM   27  C26 UNL     1      22.249  10.352  -5.668  1.00  0.00     0.019 A 
HETATM   28  C27 UNL     1      21.940  11.003  -4.471  1.00  0.00     0.001 A 
HETATM   29  C28 UNL     1      21.612  10.260  -3.339  1.00  0.00     0.002 A 
HETATM   30  C29 UNL     1      21.603   8.864  -3.397  1.00  0.00     0.030 A 
HETATM   31  C30 UNL     1      21.877   8.191  -4.598  1.00  0.00     0.050 A 
HETATM   32  N6  UNL     1      21.881   6.754  -4.592  1.00  0.00    -0.324 N 
HETATM   33  C31 UNL     1      20.935   5.987  -5.354  1.00  0.00     0.245 C 
HETATM   34  O4  UNL     1      21.182   5.745  -6.562  1.00  0.00    -0.271 OA
HETATM   35  C32 UNL     1      22.752   5.242  -9.274  1.00  0.00     0.030 A 
HETATM   36  C33 UNL     1      23.338   4.319  -8.407  1.00  0.00     0.002 A 
HETATM   37  C34 UNL     1      22.578   3.282  -7.877  1.00  0.00     0.001 A 
HETATM   38  C35 UNL     1      21.233   3.157  -8.221  1.00  0.00     0.019 A 
HETATM   39  O5  UNL     1      19.109   3.273 -10.683  1.00  0.00    -0.268 OA
HETATM   40  O6  UNL     1      18.330   2.384  -6.308  1.00  0.00    -0.271 OA
HETATM   41  H9  UNL     1      17.294   3.257  -8.953  1.00  0.00     0.163 HD
HETATM   42  H10 UNL     1      21.514   6.941 -10.798  1.00  0.00     0.169 HD
HETATM   43  H26 UNL     1      22.725   8.238  -9.093  1.00  0.00     0.163 HD
HETATM   44  H31 UNL     1      22.307   6.283  -3.763  1.00  0.00     0.169 HD
ENDROOT
BRANCH   7  45
HETATM   45  C36 UNL     1      16.595   4.879  -7.102  1.00  0.00     0.073 C 
BRANCH  45  46
HETATM   46  C37 UNL     1      16.408   6.207  -6.421  1.00  0.00    -0.056 A 
HETATM   47  C38 UNL     1      16.376   7.393  -7.174  1.00  0.00     0.007 A 
HETATM   48  C39 UNL     1      16.197   8.626  -6.536  1.00  0.00     0.001 A 
HETATM   49  C40 UNL     1      16.029   8.683  -5.149  1.00  0.00     0.000 A 
HETATM   50  C41 UNL     1      16.064   7.505  -4.395  1.00  0.00     0.001 A 
HETATM   51  C42 UNL     1      16.252   6.270  -5.025  1.00  0.00     0.007 A 
ENDBRANCH  45  46
ENDBRANCH   7  45
BRANCH  22  52
HETATM   52  C17 UNL     1      21.216  10.409  -9.833  1.00  0.00     0.073 C 
BRANCH  52  53
HETATM   53  C18 UNL     1      20.662  11.811  -9.678  1.00  0.00    -0.056 A 
HETATM   54  C19 UNL     1      19.761  12.343 -10.615  1.00  0.00     0.007 A 
HETATM   55  C20 UNL     1      19.252  13.636 -10.450  1.00  0.00     0.001 A 
HETATM   56  C21 UNL     1      19.628  14.403  -9.347  1.00  0.00     0.000 A 
HETATM   57  C22 UNL     1      20.510  13.878  -8.403  1.00  0.00     0.001 A 
HETATM   58  C23 UNL     1      21.015  12.584  -8.559  1.00  0.00     0.007 A 
ENDBRANCH  52  53
ENDBRANCH  22  52
TORSDOF 4
ENDMDL
MODEL 4
REMARK VINA RESULT:     -10.6      1.772      3.061
REMARK  4 active torsions:
REMARK  status: ('A' for Active; 'I' for Inactive)
REMARK    1  A    between atoms: C6_7  and  C36_47 
REMARK    2  A    between atoms: C16_22  and  C17_23 
REMARK    3  A    between atoms: C17_23  and  C18_24 
REMARK    4  A    between atoms: C36_47  and  C37_48 
ROOT
HETATM    1  C1  UNL     1      22.264   7.821  -9.070  1.00  0.00     0.179 C 
HETATM    2  N1  UNL     1      21.914   8.129 -10.460  1.00  0.00    -0.337 N 
HETATM    3  C2  UNL     1      22.968   8.899 -11.108  1.00  0.00     0.127 C 
HETATM    4  C3  UNL     1      24.086   9.036 -10.084  1.00  0.00     0.022 C 
HETATM    5  C4  UNL     1      23.784   7.972  -9.042  1.00  0.00     0.037 C 
HETATM    6  C5  UNL     1      20.864   7.518 -11.253  1.00  0.00     0.243 C 
HETATM    7  C6  UNL     1      19.835   6.560 -10.681  1.00  0.00     0.181 C 
HETATM    8  N2  UNL     1      18.534   6.771 -11.340  1.00  0.00    -0.343 N 
HETATM    9  C7  UNL     1      17.535   7.720 -10.943  1.00  0.00     0.254 C 
HETATM   10  C8  UNL     1      17.839   8.864 -10.078  1.00  0.00     0.058 A 
HETATM   11  C9  UNL     1      17.242   9.067  -8.800  1.00  0.00     0.050 A 
HETATM   12  N3  UNL     1      16.453   8.076  -8.097  1.00  0.00    -0.324 N 
HETATM   13  C10 UNL     1      16.089   6.775  -8.566  1.00  0.00     0.245 C 
HETATM   14  O1  UNL     1      15.053   6.651  -9.276  1.00  0.00    -0.271 OA
HETATM   15  C11 UNL     1      16.949   5.575  -8.246  1.00  0.00     0.179 C 
HETATM   16  N4  UNL     1      17.368   5.534  -6.844  1.00  0.00    -0.337 N 
HETATM   17  C12 UNL     1      17.284   4.171  -6.322  1.00  0.00     0.127 C 
HETATM   18  C13 UNL     1      16.899   3.291  -7.501  1.00  0.00     0.022 C 
HETATM   19  C14 UNL     1      16.253   4.236  -8.499  1.00  0.00     0.037 C 
HETATM   20  C15 UNL     1      18.385   6.427  -6.361  1.00  0.00     0.243 C 
HETATM   21  O2  UNL     1      19.383   6.646  -7.089  1.00  0.00    -0.271 OA
HETATM   22  C16 UNL     1      18.359   7.074  -4.992  1.00  0.00     0.181 C 
HETATM   23  N5  UNL     1      18.522   8.531  -5.133  1.00  0.00    -0.343 N 
HETATM   24  C24 UNL     1      19.768   9.209  -5.339  1.00  0.00     0.254 C 
HETATM   25  O3  UNL     1      19.750  10.355  -5.863  1.00  0.00    -0.268 OA
HETATM   26  C25 UNL     1      21.066   8.652  -4.902  1.00  0.00     0.058 A 
HETATM   27  C26 UNL     1      21.173   8.129  -3.599  1.00  0.00     0.019 A 
HETATM   28  C27 UNL     1      22.407   7.706  -3.099  1.00  0.00     0.001 A 
HETATM   29  C28 UNL     1      23.554   7.829  -3.880  1.00  0.00     0.002 A 
HETATM   30  C29 UNL     1      23.473   8.386  -5.159  1.00  0.00     0.030 A 
HETATM   31  C30 UNL     1      22.238   8.786  -5.693  1.00  0.00     0.050 A 
HETATM   32  N6  UNL     1      22.218   9.378  -7.003  1.00  0.00    -0.324 N 
HETATM   33  C31 UNL     1      21.547   8.755  -8.110  1.00  0.00     0.245 C 
HETATM   34  O4  UNL     1      20.316   8.954  -8.263  1.00  0.00    -0.271 OA
HETATM   35  C32 UNL     1      17.446  10.302  -8.154  1.00  0.00     0.030 A 
HETATM   36  C33 UNL     1      18.229  11.301  -8.733  1.00  0.00     0.002 A 
HETATM   37  C34 UNL     1      18.819  11.090  -9.976  1.00  0.00     0.001 A 
HETATM   38  C35 UNL     1      18.616   9.887 -10.648  1.00  0.00     0.019 A 
HETATM   39  O5  UNL     1      16.394   7.659 -11.477  1.00  0.00    -0.268 OA
HETATM   40  O6  UNL     1      20.811   7.769 -12.487  1.00  0.00    -0.271 OA
HETATM   41  H9  UNL     1      18.305   6.198 -12.186  1.00  0.00     0.163 HD
HETATM   42  H10 UNL     1      16.091   8.327  -7.151  1.00  0.00     0.169 HD
HETATM   43  H26 UNL     1      17.680   9.071  -5.427  1.00  0.00     0.163 HD
HETATM   44  H31 UNL     1      22.990  10.042  -7.236  1.00  0.00     0.169 HD
ENDROOT
BRANCH   7  45
HETATM   45  C36 UNL     1      20.248   5.092 -10.941  1.00  0.00     0.073 C 
BRANCH  45  46
HETATM   46  C37 UNL     1      21.257   4.562  -9.960  1.00  0.00    -0.056 A 
HETATM   47  C38 UNL     1      20.861   4.190  -8.665  1.00  0.00     0.007 A 
HETATM   48  C39 UNL     1      21.804   3.693  -7.757  1.00  0.00     0.001 A 
HETATM   49  C40 UNL     1      23.140   3.545  -8.140  1.00  0.00     0.000 A 
HETATM   50  C41 UNL     1      23.540   3.918  -9.429  1.00  0.00     0.001 A 
HETATM   51  C42 UNL     1      22.605   4.425 -10.338  1.00  0.00     0.007 A 
ENDBRANCH  45  46
ENDBRANCH   7  45
BRANCH  22  52
HETATM   52  C17 UNL     1      17.141   6.738  -4.083  1.00  0.00     0.073 C 
BRANCH  52  53
HETATM   53  C18 UNL     1      17.423   5.813  -2.916  1.00  0.00    -0.056 A 
HETATM   54  C19 UNL     1      16.619   4.689  -2.670  1.00  0.00     0.007 A 
HETATM   55  C20 UNL     1      16.900   3.842  -1.592  1.00  0.00     0.001 A 
HETATM   56  C21 UNL     1      17.990   4.100  -0.762  1.00  0.00     0.000 A 
HETATM   57  C22 UNL     1      18.805   5.205  -1.006  1.00  0.00     0.001 A 
HETATM   58  C23 UNL     1      18.532   6.051  -2.086  1.00  0.00     0.007 A 
ENDBRANCH  52  53
ENDBRANCH  22  52
TORSDOF 4
ENDMDL
MODEL 5
REMARK VINA RESULT:     -10.4      1.764      7.304
REMARK  4 active torsions:
REMARK  status: ('A' for Active; 'I' for Inactive)
REMARK    1  A    between atoms: C6_7  and  C36_47 
REMARK    2  A    between atoms: C16_22  and  C17_23 
REMARK    3  A    between atoms: C17_23  and  C18_24 
REMARK    4  A    between atoms: C36_47  and  C37_48 
ROOT
HETATM    1  C1  UNL     1      19.773   5.540  -4.198  1.00  0.00     0.179 C 
HETATM    2  N1  UNL     1      19.456   4.244  -4.806  1.00  0.00    -0.337 N 
HETATM    3  C2  UNL     1      19.963   3.146  -3.992  1.00  0.00     0.127 C 
HETATM    4  C3  UNL     1      20.586   3.781  -2.759  1.00  0.00     0.022 C 
HETATM    5  C4  UNL     1      20.027   5.195  -2.731  1.00  0.00     0.037 C 
HETATM    6  C5  UNL     1      18.502   3.987  -5.868  1.00  0.00     0.243 C 
HETATM    7  C6  UNL     1      17.795   5.085  -6.641  1.00  0.00     0.181 C 
HETATM    8  N2  UNL     1      17.627   4.678  -8.047  1.00  0.00    -0.343 N 
HETATM    9  C7  UNL     1      18.583   4.869  -9.098  1.00  0.00     0.254 C 
HETATM   10  C8  UNL     1      20.000   5.135  -8.831  1.00  0.00     0.058 A 
HETATM   11  C9  UNL     1      20.668   6.326  -9.240  1.00  0.00     0.050 A 
HETATM   12  N3  UNL     1      20.003   7.506  -9.753  1.00  0.00    -0.324 N 
HETATM   13  C10 UNL     1      18.602   7.667  -9.993  1.00  0.00     0.245 C 
HETATM   14  O1  UNL     1      18.126   7.291 -11.099  1.00  0.00    -0.271 OA
HETATM   15  C11 UNL     1      17.702   8.247  -8.926  1.00  0.00     0.179 C 
HETATM   16  N4  UNL     1      18.271   9.436  -8.288  1.00  0.00    -0.337 N 
HETATM   17  C12 UNL     1      17.241  10.454  -8.087  1.00  0.00     0.127 C 
HETATM   18  C13 UNL     1      15.929   9.819  -8.522  1.00  0.00     0.022 C 
HETATM   19  C14 UNL     1      16.334   8.686  -9.450  1.00  0.00     0.037 C 
HETATM   20  C15 UNL     1      19.351   9.311  -7.349  1.00  0.00     0.243 C 
HETATM   21  O2  UNL     1      19.321   8.368  -6.523  1.00  0.00    -0.271 OA
HETATM   22  C16 UNL     1      20.501  10.293  -7.251  1.00  0.00     0.181 C 
HETATM   23  N5  UNL     1      21.778   9.564  -7.327  1.00  0.00    -0.343 N 
HETATM   24  C24 UNL     1      22.396   8.858  -6.243  1.00  0.00     0.254 C 
HETATM   25  O3  UNL     1      23.220   7.944  -6.511  1.00  0.00    -0.268 OA
HETATM   26  C25 UNL     1      22.159   9.202  -4.824  1.00  0.00     0.058 A 
HETATM   27  C26 UNL     1      22.227  10.553  -4.436  1.00  0.00     0.019 A 
HETATM   28  C27 UNL     1      22.134  10.915  -3.089  1.00  0.00     0.001 A 
HETATM   29  C28 UNL     1      22.004   9.930  -2.112  1.00  0.00     0.002 A 
HETATM   30  C29 UNL     1      21.979   8.582  -2.477  1.00  0.00     0.030 A 
HETATM   31  C30 UNL     1      22.037   8.199  -3.826  1.00  0.00     0.050 A 
HETATM   32  N6  UNL     1      22.034   6.796  -4.141  1.00  0.00    -0.324 N 
HETATM   33  C31 UNL     1      20.966   6.184  -4.881  1.00  0.00     0.245 C 
HETATM   34  O4  UNL     1      20.999   6.222  -6.136  1.00  0.00    -0.271 OA
HETATM   35  C32 UNL     1      22.071   6.381  -9.119  1.00  0.00     0.030 A 
HETATM   36  C33 UNL     1      22.795   5.311  -8.593  1.00  0.00     0.002 A 
HETATM   37  C34 UNL     1      22.133   4.157  -8.184  1.00  0.00     0.001 A 
HETATM   38  C35 UNL     1      20.749   4.065  -8.313  1.00  0.00     0.019 A 
HETATM   39  O5  UNL     1      18.229   4.648 -10.288  1.00  0.00    -0.268 OA
HETATM   40  O6  UNL     1      18.219   2.792  -6.153  1.00  0.00    -0.271 OA
HETATM   41  H9  UNL     1      16.742   4.190  -8.322  1.00  0.00     0.163 HD
HETATM   42  H10 UNL     1      20.595   8.331  -9.993  1.00  0.00     0.169 HD
HETATM   43  H26 UNL     1      22.090   9.261  -8.275  1.00  0.00     0.163 HD
HETATM   44  H31 UNL     1      22.596   6.170  -3.522  1.00  0.00     0.169 HD
ENDROOT
BRANCH   7  45
HETATM   45  C36 UNL     1      16.383   5.340  -6.064  1.00  0.00     0.073 C 
BRANCH  45  46
HETATM   46  C37 UNL     1      16.348   5.429  -4.563  1.00  0.00    -0.056 A 
HETATM   47  C38 UNL     1      16.160   4.273  -3.787  1.00  0.00     0.007 A 
HETATM   48  C39 UNL     1      16.132   4.361  -2.390  1.00  0.00     0.001 A 
HETATM   49  C40 UNL     1      16.311   5.596  -1.759  1.00  0.00     0.000 A 
HETATM   50  C41 UNL     1      16.495   6.751  -2.529  1.00  0.00     0.001 A 
HETATM   51  C42 UNL     1      16.514   6.671  -3.925  1.00  0.00     0.007 A 
ENDBRANCH  45  46
ENDBRANCH   7  45
BRANCH  22  52
HETATM   52  C17 UNL     1      20.485  11.490  -8.245  1.00  0.00     0.073 C 
BRANCH  52  53
HETATM   53  C18 UNL     1      20.713  11.142  -9.702  1.00  0.00    -0.056 A 
HETATM   54  C19 UNL     1      21.891  10.503 -10.120  1.00  0.00     0.007 A 
HETATM   55  C20 UNL     1      22.080  10.181 -11.469  1.00  0.00     0.001 A 
HETATM   56  C21 UNL     1      21.093  10.481 -12.407  1.00  0.00     0.000 A 
HETATM   57  C22 UNL     1      19.912  11.102 -12.000  1.00  0.00     0.001 A 
HETATM   58  C23 UNL     1      19.716  11.419 -10.653  1.00  0.00     0.007 A 
ENDBRANCH  52  53
ENDBRANCH  22  52
TORSDOF 4
ENDMDL
MODEL 6
REMARK VINA RESULT:     -10.3      2.072      6.301
REMARK  4 active torsions:
REMARK  status: ('A' for Active; 'I' for Inactive)
REMARK    1  A    between atoms: C6_7  and  C36_47 
REMARK    2  A    between atoms: C16_22  and  C17_23 
REMARK    3  A    between atoms: C17_23  and  C18_24 
REMARK    4  A    between atoms: C36_47  and  C37_48 
ROOT
HETATM    1  C1  UNL     1      18.377   4.965  -9.335  1.00  0.00     0.179 C 
HETATM    2  N1  UNL     1      17.038   5.558  -9.419  1.00  0.00    -0.337 N 
HETATM    3  C2  UNL     1      16.451   5.343 -10.736  1.00  0.00     0.127 C 
HETATM    4  C3  UNL     1      17.454   4.508 -11.518  1.00  0.00     0.022 C 
HETATM    5  C4  UNL     1      18.381   3.931 -10.461  1.00  0.00     0.037 C 
HETATM    6  C5  UNL     1      16.211   6.008  -8.315  1.00  0.00     0.243 C 
HETATM    7  C6  UNL     1      16.701   6.086  -6.881  1.00  0.00     0.181 C 
HETATM    8  N2  UNL     1      16.104   7.255  -6.211  1.00  0.00    -0.343 N 
HETATM    9  C7  UNL     1      16.628   8.589  -6.222  1.00  0.00     0.254 C 
HETATM   10  C8  UNL     1      17.605   9.040  -7.218  1.00  0.00     0.058 A 
HETATM   11  C9  UNL     1      18.913   9.500  -6.888  1.00  0.00     0.050 A 
HETATM   12  N3  UNL     1      19.524   9.366  -5.581  1.00  0.00    -0.324 N 
HETATM   13  C10 UNL     1      18.924   8.819  -4.403  1.00  0.00     0.245 C 
HETATM   14  O1  UNL     1      18.232   9.574  -3.665  1.00  0.00    -0.271 OA
HETATM   15  C11 UNL     1      19.088   7.355  -4.067  1.00  0.00     0.179 C 
HETATM   16  N4  UNL     1      20.466   6.887  -4.227  1.00  0.00    -0.337 N 
HETATM   17  C12 UNL     1      20.838   5.999  -3.126  1.00  0.00     0.127 C 
HETATM   18  C13 UNL     1      19.580   5.812  -2.292  1.00  0.00     0.022 C 
HETATM   19  C14 UNL     1      18.709   7.011  -2.626  1.00  0.00     0.037 C 
HETATM   20  C15 UNL     1      21.017   6.677  -5.537  1.00  0.00     0.243 C 
HETATM   21  O2  UNL     1      20.292   6.147  -6.413  1.00  0.00    -0.271 OA
HETATM   22  C16 UNL     1      22.449   6.998  -5.912  1.00  0.00     0.181 C 
HETATM   23  N5  UNL     1      22.465   7.854  -7.110  1.00  0.00    -0.343 N 
HETATM   24  C24 UNL     1      22.301   7.395  -8.459  1.00  0.00     0.254 C 
HETATM   25  O3  UNL     1      21.906   8.215  -9.330  1.00  0.00    -0.268 OA
HETATM   26  C25 UNL     1      22.640   6.020  -8.884  1.00  0.00     0.058 A 
HETATM   27  C26 UNL     1      23.875   5.474  -8.484  1.00  0.00     0.019 A 
HETATM   28  C27 UNL     1      24.293   4.230  -8.963  1.00  0.00     0.001 A 
HETATM   29  C28 UNL     1      23.500   3.530  -9.870  1.00  0.00     0.002 A 
HETATM   30  C29 UNL     1      22.293   4.078 -10.311  1.00  0.00     0.030 A 
HETATM   31  C30 UNL     1      21.838   5.310  -9.817  1.00  0.00     0.050 A 
HETATM   32  N6  UNL     1      20.602   5.838 -10.327  1.00  0.00    -0.324 N 
HETATM   33  C31 UNL     1      19.451   6.027  -9.487  1.00  0.00     0.245 C 
HETATM   34  O4  UNL     1      19.354   7.088  -8.823  1.00  0.00    -0.271 OA
HETATM   35  C32 UNL     1      19.684  10.106  -7.898  1.00  0.00     0.030 A 
HETATM   36  C33 UNL     1      19.198  10.238  -9.199  1.00  0.00     0.002 A 
HETATM   37  C34 UNL     1      17.925   9.775  -9.517  1.00  0.00     0.001 A 
HETATM   38  C35 UNL     1      17.130   9.192  -8.533  1.00  0.00     0.019 A 
HETATM   39  O5  UNL     1      16.121   9.447  -5.449  1.00  0.00    -0.268 OA
HETATM   40  O6  UNL     1      15.013   6.327  -8.545  1.00  0.00    -0.271 OA
HETATM   41  H9  UNL     1      15.206   7.124  -5.687  1.00  0.00     0.163 HD
HETATM   42  H10 UNL     1      20.500   9.715  -5.465  1.00  0.00     0.169 HD
HETATM   43  H26 UNL     1      22.253   8.865  -6.968  1.00  0.00     0.163 HD
HETATM   44  H31 UNL     1      20.423   5.725 -11.349  1.00  0.00     0.169 HD
ENDROOT
BRANCH   7  45
HETATM   45  C36 UNL     1      16.271   4.832  -6.085  1.00  0.00     0.073 C 
BRANCH  45  46
HETATM   46  C37 UNL     1      17.261   3.701  -6.152  1.00  0.00    -0.056 A 
HETATM   47  C38 UNL     1      17.039   2.613  -7.013  1.00  0.00     0.007 A 
HETATM   48  C39 UNL     1      17.966   1.565  -7.075  1.00  0.00     0.001 A 
HETATM   49  C40 UNL     1      19.127   1.606  -6.296  1.00  0.00     0.000 A 
HETATM   50  C41 UNL     1      19.350   2.686  -5.435  1.00  0.00     0.001 A 
HETATM   51  C42 UNL     1      18.423   3.732  -5.361  1.00  0.00     0.007 A 
ENDBRANCH  45  46
ENDBRANCH   7  45
BRANCH  22  52
HETATM   52  C17 UNL     1      23.348   7.597  -4.791  1.00  0.00     0.073 C 
BRANCH  52  53
HETATM   53  C18 UNL     1      22.820   8.848  -4.118  1.00  0.00    -0.056 A 
HETATM   54  C19 UNL     1      22.497   8.855  -2.752  1.00  0.00     0.007 A 
HETATM   55  C20 UNL     1      22.020  10.023  -2.145  1.00  0.00     0.001 A 
HETATM   56  C21 UNL     1      21.872  11.191  -2.892  1.00  0.00     0.000 A 
HETATM   57  C22 UNL     1      22.203  11.199  -4.246  1.00  0.00     0.001 A 
HETATM   58  C23 UNL     1      22.687  10.037  -4.855  1.00  0.00     0.007 A 
ENDBRANCH  52  53
ENDBRANCH  22  52
TORSDOF 4
ENDMDL
MODEL 7
REMARK VINA RESULT:     -10.0      1.496      1.917
REMARK  4 active torsions:
REMARK  status: ('A' for Active; 'I' for Inactive)
REMARK    1  A    between atoms: C6_7  and  C36_47 
REMARK    2  A    between atoms: C16_22  and  C17_23 
REMARK    3  A    between atoms: C17_23  and  C18_24 
REMARK    4  A    between atoms: C36_47  and  C37_48 
ROOT
HETATM    1  C1  UNL     1      20.935   8.293  -8.392  1.00  0.00     0.179 C 
HETATM    2  N1  UNL     1      20.009   8.447  -9.519  1.00  0.00    -0.337 N 
HETATM    3  C2  UNL     1      20.124   9.772 -10.115  1.00  0.00     0.127 C 
HETATM    4  C3  UNL     1      21.236  10.484  -9.359  1.00  0.00     0.022 C 
HETATM    5  C4  UNL     1      21.987   9.373  -8.644  1.00  0.00     0.037 C 
HETATM    6  C5  UNL     1      19.299   7.391 -10.217  1.00  0.00     0.243 C 
HETATM    7  C6  UNL     1      19.284   5.946  -9.753  1.00  0.00     0.181 C 
HETATM    8  N2  UNL     1      17.965   5.348 -10.026  1.00  0.00    -0.343 N 
HETATM    9  C7  UNL     1      16.823   5.398  -9.161  1.00  0.00     0.254 C 
HETATM   10  C8  UNL     1      16.701   6.380  -8.079  1.00  0.00     0.058 A 
HETATM   11  C9  UNL     1      16.594   6.026  -6.702  1.00  0.00     0.050 A 
HETATM   12  N3  UNL     1      16.822   4.695  -6.177  1.00  0.00    -0.324 N 
HETATM   13  C10 UNL     1      17.128   3.515  -6.926  1.00  0.00     0.245 C 
HETATM   14  O1  UNL     1      16.179   2.834  -7.403  1.00  0.00    -0.271 OA
HETATM   15  C11 UNL     1      18.563   3.112  -7.170  1.00  0.00     0.179 C 
HETATM   16  N4  UNL     1      19.392   3.205  -5.967  1.00  0.00    -0.337 N 
HETATM   17  C12 UNL     1      20.291   2.056  -5.872  1.00  0.00     0.127 C 
HETATM   18  C13 UNL     1      20.091   1.257  -7.150  1.00  0.00     0.022 C 
HETATM   19  C14 UNL     1      18.721   1.671  -7.658  1.00  0.00     0.037 C 
HETATM   20  C15 UNL     1      19.808   4.486  -5.467  1.00  0.00     0.243 C 
HETATM   21  O2  UNL     1      20.166   5.362  -6.289  1.00  0.00    -0.271 OA
HETATM   22  C16 UNL     1      19.902   4.826  -3.994  1.00  0.00     0.181 C 
HETATM   23  N5  UNL     1      19.143   6.059  -3.723  1.00  0.00    -0.343 N 
HETATM   24  C24 UNL     1      19.608   7.392  -3.976  1.00  0.00     0.254 C 
HETATM   25  O3  UNL     1      18.757   8.309  -4.117  1.00  0.00    -0.268 OA
HETATM   26  C25 UNL     1      21.043   7.746  -4.013  1.00  0.00     0.058 A 
HETATM   27  C26 UNL     1      21.881   7.282  -2.980  1.00  0.00     0.019 A 
HETATM   28  C27 UNL     1      23.214   7.693  -2.903  1.00  0.00     0.001 A 
HETATM   29  C28 UNL     1      23.719   8.596  -3.837  1.00  0.00     0.002 A 
HETATM   30  C29 UNL     1      22.890   9.100  -4.842  1.00  0.00     0.030 A 
HETATM   31  C30 UNL     1      21.557   8.674  -4.957  1.00  0.00     0.050 A 
HETATM   32  N6  UNL     1      20.743   9.247  -5.995  1.00  0.00    -0.324 N 
HETATM   33  C31 UNL     1      20.209   8.455  -7.068  1.00  0.00     0.245 C 
HETATM   34  O4  UNL     1      19.129   7.840  -6.889  1.00  0.00    -0.271 OA
HETATM   35  C32 UNL     1      16.269   7.035  -5.775  1.00  0.00     0.030 A 
HETATM   36  C33 UNL     1      16.077   8.356  -6.181  1.00  0.00     0.002 A 
HETATM   37  C34 UNL     1      16.196   8.695  -7.525  1.00  0.00     0.001 A 
HETATM   38  C35 UNL     1      16.494   7.714  -8.468  1.00  0.00     0.019 A 
HETATM   39  O5  UNL     1      15.823   4.680  -9.433  1.00  0.00    -0.268 OA
HETATM   40  O6  UNL     1      18.681   7.675 -11.278  1.00  0.00    -0.271 OA
HETATM   41  H9  UNL     1      17.824   4.849 -10.936  1.00  0.00     0.163 HD
HETATM   42  H10 UNL     1      16.743   4.561  -5.145  1.00  0.00     0.169 HD
HETATM   43  H26 UNL     1      18.107   5.967  -3.656  1.00  0.00     0.163 HD
HETATM   44  H31 UNL     1      20.855  10.269  -6.176  1.00  0.00     0.169 HD
ENDROOT
BRANCH   7  45
HETATM   45  C36 UNL     1      20.334   5.113 -10.522  1.00  0.00     0.073 C 
BRANCH  45  46
HETATM   46  C37 UNL     1      21.560   4.786  -9.714  1.00  0.00    -0.056 A 
HETATM   47  C38 UNL     1      22.534   5.769  -9.470  1.00  0.00     0.007 A 
HETATM   48  C39 UNL     1      23.670   5.460  -8.713  1.00  0.00     0.001 A 
HETATM   49  C40 UNL     1      23.833   4.178  -8.178  1.00  0.00     0.000 A 
HETATM   50  C41 UNL     1      22.867   3.195  -8.422  1.00  0.00     0.001 A 
HETATM   51  C42 UNL     1      21.734   3.494  -9.186  1.00  0.00     0.007 A 
ENDBRANCH  45  46
ENDBRANCH   7  45
BRANCH  22  52
HETATM   52  C17 UNL     1      19.512   3.703  -2.990  1.00  0.00     0.073 C 
BRANCH  52  53
HETATM   53  C18 UNL     1      18.196   3.894  -2.264  1.00  0.00    -0.056 A 
HETATM   54  C19 UNL     1      16.972   3.829  -2.949  1.00  0.00     0.007 A 
HETATM   55  C20 UNL     1      15.766   3.998  -2.260  1.00  0.00     0.001 A 
HETATM   56  C21 UNL     1      15.770   4.222  -0.884  1.00  0.00     0.000 A 
HETATM   57  C22 UNL     1      16.979   4.275  -0.190  1.00  0.00     0.001 A 
HETATM   58  C23 UNL     1      18.186   4.099  -0.873  1.00  0.00     0.007 A 
ENDBRANCH  52  53
ENDBRANCH  22  52
TORSDOF 4
ENDMDL
MODEL 8
REMARK VINA RESULT:      -9.9      2.451      6.703
REMARK  4 active torsions:
REMARK  status: ('A' for Active; 'I' for Inactive)
REMARK    1  A    between atoms: C6_7  and  C36_47 
REMARK    2  A    between atoms: C16_22  and  C17_23 
REMARK    3  A    between atoms: C17_23  and  C18_24 
REMARK    4  A    between atoms: C36_47  and  C37_48 
ROOT
HETATM    1  C1  UNL     1      18.433   4.629 -10.281  1.00  0.00     0.179 C 
HETATM    2  N1  UNL     1      17.134   4.746 -10.951  1.00  0.00    -0.337 N 
HETATM    3  C2  UNL     1      16.997   3.749 -12.005  1.00  0.00     0.127 C 
HETATM    4  C3  UNL     1      18.262   2.907 -11.962  1.00  0.00     0.022 C 
HETATM    5  C4  UNL     1      18.875   3.203 -10.603  1.00  0.00     0.037 C 
HETATM    6  C5  UNL     1      15.973   5.480 -10.483  1.00  0.00     0.243 C 
HETATM    7  C6  UNL     1      15.996   6.401  -9.277  1.00  0.00     0.181 C 
HETATM    8  N2  UNL     1      15.117   7.560  -9.516  1.00  0.00    -0.343 N 
HETATM    9  C7  UNL     1      15.494   8.780 -10.168  1.00  0.00     0.254 C 
HETATM   10  C8  UNL     1      16.680   8.879 -11.024  1.00  0.00     0.058 A 
HETATM   11  C9  UNL     1      17.777   9.747 -10.753  1.00  0.00     0.050 A 
HETATM   12  N3  UNL     1      17.973  10.457  -9.506  1.00  0.00    -0.324 N 
HETATM   13  C10 UNL     1      17.098  10.466  -8.374  1.00  0.00     0.245 C 
HETATM   14  O1  UNL     1      16.148  11.295  -8.345  1.00  0.00    -0.271 OA
HETATM   15  C11 UNL     1      17.288   9.474  -7.250  1.00  0.00     0.179 C 
HETATM   16  N4  UNL     1      18.687   9.345  -6.838  1.00  0.00    -0.337 N 
HETATM   17  C12 UNL     1      18.789   9.271  -5.381  1.00  0.00     0.127 C 
HETATM   18  C13 UNL     1      17.360   9.237  -4.859  1.00  0.00     0.022 C 
HETATM   19  C14 UNL     1      16.524   9.838  -5.976  1.00  0.00     0.037 C 
HETATM   20  C15 UNL     1      19.626   8.634  -7.660  1.00  0.00     0.243 C 
HETATM   21  O2  UNL     1      19.254   7.571  -8.212  1.00  0.00    -0.271 OA
HETATM   22  C16 UNL     1      21.068   9.057  -7.853  1.00  0.00     0.181 C 
HETATM   23  N5  UNL     1      21.366   9.149  -9.292  1.00  0.00    -0.343 N 
HETATM   24  C24 UNL     1      21.663   8.039 -10.150  1.00  0.00     0.254 C 
HETATM   25  O3  UNL     1      21.476   8.169 -11.389  1.00  0.00    -0.268 OA
HETATM   26  C25 UNL     1      22.241   6.773  -9.651  1.00  0.00     0.058 A 
HETATM   27  C26 UNL     1      23.342   6.832  -8.775  1.00  0.00     0.019 A 
HETATM   28  C27 UNL     1      24.000   5.665  -8.377  1.00  0.00     0.001 A 
HETATM   29  C28 UNL     1      23.588   4.430  -8.872  1.00  0.00     0.002 A 
HETATM   30  C29 UNL     1      22.526   4.358  -9.777  1.00  0.00     0.030 A 
HETATM   31  C30 UNL     1      21.830   5.514 -10.163  1.00  0.00     0.050 A 
HETATM   32  N6  UNL     1      20.763   5.383 -11.118  1.00  0.00    -0.324 N 
HETATM   33  C31 UNL     1      19.399   5.688 -10.783  1.00  0.00     0.245 C 
HETATM   34  O4  UNL     1      19.007   6.878 -10.864  1.00  0.00    -0.271 OA
HETATM   35  C32 UNL     1      18.759   9.916 -11.749  1.00  0.00     0.030 A 
HETATM   36  C33 UNL     1      18.680   9.237 -12.966  1.00  0.00     0.002 A 
HETATM   37  C34 UNL     1      17.612   8.381 -13.217  1.00  0.00     0.001 A 
HETATM   38  C35 UNL     1      16.614   8.212 -12.260  1.00  0.00     0.019 A 
HETATM   39  O5  UNL     1      14.698   9.758 -10.131  1.00  0.00    -0.268 OA
HETATM   40  O6  UNL     1      14.877   5.332 -11.089  1.00  0.00    -0.271 OA
HETATM   41  H9  UNL     1      14.120   7.501  -9.203  1.00  0.00     0.163 HD
HETATM   42  H10 UNL     1      18.831  11.043  -9.412  1.00  0.00     0.169 HD
HETATM   43  H26 UNL     1      21.028  10.002  -9.788  1.00  0.00     0.163 HD
HETATM   44  H31 UNL     1      20.914   4.721 -11.912  1.00  0.00     0.169 HD
ENDROOT
BRANCH   7  45
HETATM   45  C36 UNL     1      15.463   5.673  -8.021  1.00  0.00     0.073 C 
BRANCH  45  46
HETATM   46  C37 UNL     1      16.546   5.117  -7.137  1.00  0.00    -0.056 A 
HETATM   47  C38 UNL     1      17.150   5.926  -6.160  1.00  0.00     0.007 A 
HETATM   48  C39 UNL     1      18.153   5.403  -5.336  1.00  0.00     0.001 A 
HETATM   49  C40 UNL     1      18.546   4.067  -5.468  1.00  0.00     0.000 A 
HETATM   50  C41 UNL     1      17.950   3.259  -6.442  1.00  0.00     0.001 A 
HETATM   51  C42 UNL     1      16.953   3.778  -7.275  1.00  0.00     0.007 A 
ENDBRANCH  45  46
ENDBRANCH   7  45
BRANCH  22  52
HETATM   52  C17 UNL     1      21.525  10.345  -7.108  1.00  0.00     0.073 C 
BRANCH  52  53
HETATM   53  C18 UNL     1      22.155  10.133  -5.747  1.00  0.00    -0.056 A 
HETATM   54  C19 UNL     1      21.853  10.978  -4.668  1.00  0.00     0.007 A 
HETATM   55  C20 UNL     1      22.438  10.761  -3.415  1.00  0.00     0.001 A 
HETATM   56  C21 UNL     1      23.317   9.696  -3.226  1.00  0.00     0.000 A 
HETATM   57  C22 UNL     1      23.613   8.841  -4.288  1.00  0.00     0.001 A 
HETATM   58  C23 UNL     1      23.025   9.049  -5.539  1.00  0.00     0.007 A 
ENDBRANCH  52  53
ENDBRANCH  22  52
TORSDOF 4
ENDMDL
MODEL 9
REMARK VINA RESULT:      -9.9      2.091      5.990
REMARK  4 active torsions:
REMARK  status: ('A' for Active; 'I' for Inactive)
REMARK    1  A    between atoms: C6_7  and  C36_47 
REMARK    2  A    between atoms: C16_22  and  C17_23 
REMARK    3  A    between atoms: C17_23  and  C18_24 
REMARK    4  A    between atoms: C36_47  and  C37_48 
ROOT
HETATM    1  C1  UNL     1      18.723   6.131 -10.917  1.00  0.00     0.179 C 
HETATM    2  N1  UNL     1      17.669   7.037 -11.383  1.00  0.00    -0.337 N 
HETATM    3  C2  UNL     1      17.626   7.086 -12.839  1.00  0.00     0.127 C 
HETATM    4  C3  UNL     1      18.677   6.103 -13.330  1.00  0.00     0.022 C 
HETATM    5  C4  UNL     1      18.978   5.228 -12.124  1.00  0.00     0.037 C 
HETATM    6  C5  UNL     1      16.573   7.578 -10.601  1.00  0.00     0.243 C 
HETATM    7  C6  UNL     1      16.457   7.411  -9.097  1.00  0.00     0.181 C 
HETATM    8  N2  UNL     1      15.878   8.628  -8.501  1.00  0.00    -0.343 N 
HETATM    9  C7  UNL     1      16.608   9.790  -8.085  1.00  0.00     0.254 C 
HETATM   10  C8  UNL     1      17.966  10.073  -8.557  1.00  0.00     0.058 A 
HETATM   11  C9  UNL     1      19.096  10.170  -7.693  1.00  0.00     0.050 A 
HETATM   12  N3  UNL     1      19.098   9.778  -6.299  1.00  0.00    -0.324 N 
HETATM   13  C10 UNL     1      17.987   9.295  -5.539  1.00  0.00     0.245 C 
HETATM   14  O1  UNL     1      17.217  10.129  -4.988  1.00  0.00    -0.271 OA
HETATM   15  C11 UNL     1      17.721   7.812  -5.427  1.00  0.00     0.179 C 
HETATM   16  N4  UNL     1      18.931   7.037  -5.147  1.00  0.00    -0.337 N 
HETATM   17  C12 UNL     1      18.657   5.993  -4.160  1.00  0.00     0.127 C 
HETATM   18  C13 UNL     1      17.160   6.048  -3.894  1.00  0.00     0.022 C 
HETATM   19  C14 UNL     1      16.741   7.447  -4.311  1.00  0.00     0.037 C 
HETATM   20  C15 UNL     1      19.907   6.813  -6.177  1.00  0.00     0.243 C 
HETATM   21  O2  UNL     1      19.504   6.553  -7.337  1.00  0.00    -0.271 OA
HETATM   22  C16 UNL     1      21.402   6.806  -5.936  1.00  0.00     0.181 C 
HETATM   23  N5  UNL     1      22.057   7.732  -6.876  1.00  0.00    -0.343 N 
HETATM   24  C24 UNL     1      22.360   7.445  -8.248  1.00  0.00     0.254 C 
HETATM   25  O3  UNL     1      22.509   8.408  -9.045  1.00  0.00    -0.268 OA
HETATM   26  C25 UNL     1      22.570   6.070  -8.751  1.00  0.00     0.058 A 
HETATM   27  C26 UNL     1      23.414   5.207  -8.027  1.00  0.00     0.019 A 
HETATM   28  C27 UNL     1      23.743   3.944  -8.527  1.00  0.00     0.001 A 
HETATM   29  C28 UNL     1      23.259   3.541  -9.769  1.00  0.00     0.002 A 
HETATM   30  C29 UNL     1      22.456   4.402 -10.521  1.00  0.00     0.030 A 
HETATM   31  C30 UNL     1      22.087   5.661 -10.022  1.00  0.00     0.050 A 
HETATM   32  N6  UNL     1      21.281   6.516 -10.851  1.00  0.00    -0.324 N 
HETATM   33  C31 UNL     1      19.951   6.908 -10.475  1.00  0.00     0.245 C 
HETATM   34  O4  UNL     1      19.801   7.899  -9.719  1.00  0.00    -0.271 OA
HETATM   35  C32 UNL     1      20.307  10.654  -8.226  1.00  0.00     0.030 A 
HETATM   36  C33 UNL     1      20.414  11.012  -9.570  1.00  0.00     0.002 A 
HETATM   37  C34 UNL     1      19.309  10.903 -10.410  1.00  0.00     0.001 A 
HETATM   38  C35 UNL     1      18.093  10.448  -9.905  1.00  0.00     0.019 A 
HETATM   39  O5  UNL     1      16.008  10.675  -7.416  1.00  0.00    -0.268 OA
HETATM   40  O6  UNL     1      15.651   8.199 -11.196  1.00  0.00    -0.271 OA
HETATM   41  H9  UNL     1      14.839   8.675  -8.376  1.00  0.00     0.163 HD
HETATM   42  H10 UNL     1      19.995   9.867  -5.772  1.00  0.00     0.169 HD
HETATM   43  H26 UNL     1      22.004   8.748  -6.647  1.00  0.00     0.163 HD
HETATM   44  H31 UNL     1      21.506   6.539 -11.870  1.00  0.00     0.169 HD
ENDROOT
BRANCH   7  45
HETATM   45  C36 UNL     1      15.514   6.236  -8.748  1.00  0.00     0.073 C 
BRANCH  45  46
HETATM   46  C37 UNL     1      16.235   4.967  -8.381  1.00  0.00    -0.056 A 
HETATM   47  C38 UNL     1      16.630   4.733  -7.053  1.00  0.00     0.007 A 
HETATM   48  C39 UNL     1      17.297   3.549  -6.716  1.00  0.00     0.001 A 
HETATM   49  C40 UNL     1      17.555   2.585  -7.694  1.00  0.00     0.000 A 
HETATM   50  C41 UNL     1      17.167   2.815  -9.019  1.00  0.00     0.001 A 
HETATM   51  C42 UNL     1      16.509   4.000  -9.364  1.00  0.00     0.007 A 
ENDBRANCH  45  46
ENDBRANCH   7  45
BRANCH  22  52
HETATM   52  C17 UNL     1      21.877   7.068  -4.478  1.00  0.00     0.073 C 
BRANCH  52  53
HETATM   53  C18 UNL     1      21.994   8.523  -4.073  1.00  0.00    -0.056 A 
HETATM   54  C19 UNL     1      20.973   9.159  -3.348  1.00  0.00     0.007 A 
HETATM   55  C20 UNL     1      21.103  10.502  -2.975  1.00  0.00     0.001 A 
HETATM   56  C21 UNL     1      22.253  11.215  -3.309  1.00  0.00     0.000 A 
HETATM   57  C22 UNL     1      23.279  10.589  -4.016  1.00  0.00     0.001 A 
HETATM   58  C23 UNL     1      23.158   9.246  -4.385  1.00  0.00     0.007 A 
ENDBRANCH  52  53
ENDBRANCH  22  52
TORSDOF 4
ENDMDL
MODEL 10
REMARK VINA RESULT:      -9.9      2.390      5.080
REMARK  4 active torsions:
REMARK  status: ('A' for Active; 'I' for Inactive)
REMARK    1  A    between atoms: C6_7  and  C36_47 
REMARK    2  A    between atoms: C16_22  and  C17_23 
REMARK    3  A    between atoms: C17_23  and  C18_24 
REMARK    4  A    between atoms: C36_47  and  C37_48 
ROOT
HETATM    1  C1  UNL     1      16.746   8.612 -10.355  1.00  0.00     0.179 C 
HETATM    2  N1  UNL     1      15.742   7.565 -10.141  1.00  0.00    -0.337 N 
HETATM    3  C2  UNL     1      14.397   8.070 -10.391  1.00  0.00     0.127 C 
HETATM    4  C3  UNL     1      14.562   9.510 -10.853  1.00  0.00     0.022 C 
HETATM    5  C4  UNL     1      16.025   9.622 -11.247  1.00  0.00     0.037 C 
HETATM    6  C5  UNL     1      15.978   6.138 -10.029  1.00  0.00     0.243 C 
HETATM    7  C6  UNL     1      17.363   5.524  -9.946  1.00  0.00     0.181 C 
HETATM    8  N2  UNL     1      17.340   4.358  -9.044  1.00  0.00    -0.343 N 
HETATM    9  C7  UNL     1      17.519   4.392  -7.622  1.00  0.00     0.254 C 
HETATM   10  C8  UNL     1      17.356   5.621  -6.839  1.00  0.00     0.058 A 
HETATM   11  C9  UNL     1      18.404   6.211  -6.074  1.00  0.00     0.050 A 
HETATM   12  N3  UNL     1      19.796   5.821  -6.150  1.00  0.00    -0.324 N 
HETATM   13  C10 UNL     1      20.352   4.765  -6.939  1.00  0.00     0.245 C 
HETATM   14  O1  UNL     1      20.367   3.595  -6.466  1.00  0.00    -0.271 OA
HETATM   15  C11 UNL     1      20.881   5.040  -8.327  1.00  0.00     0.179 C 
HETATM   16  N4  UNL     1      21.714   6.242  -8.390  1.00  0.00    -0.337 N 
HETATM   17  C12 UNL     1      22.883   6.013  -9.237  1.00  0.00     0.127 C 
HETATM   18  C13 UNL     1      22.711   4.623  -9.828  1.00  0.00     0.022 C 
HETATM   19  C14 UNL     1      21.753   3.914  -8.885  1.00  0.00     0.037 C 
HETATM   20  C15 UNL     1      21.115   7.547  -8.329  1.00  0.00     0.243 C 
HETATM   21  O2  UNL     1      20.048   7.745  -8.957  1.00  0.00    -0.271 OA
HETATM   22  C16 UNL     1      21.731   8.724  -7.602  1.00  0.00     0.181 C 
HETATM   23  N5  UNL     1      20.743   9.300  -6.673  1.00  0.00    -0.343 N 
HETATM   24  C24 UNL     1      19.679  10.189  -7.040  1.00  0.00     0.254 C 
HETATM   25  O3  UNL     1      18.674  10.268  -6.286  1.00  0.00    -0.268 OA
HETATM   26  C25 UNL     1      19.741  11.064  -8.231  1.00  0.00     0.058 A 
HETATM   27  C26 UNL     1      20.909  11.818  -8.456  1.00  0.00     0.019 A 
HETATM   28  C27 UNL     1      20.967  12.751  -9.494  1.00  0.00     0.001 A 
HETATM   29  C28 UNL     1      19.851  12.966 -10.300  1.00  0.00     0.002 A 
HETATM   30  C29 UNL     1      18.671  12.258 -10.063  1.00  0.00     0.030 A 
HETATM   31  C30 UNL     1      18.602  11.292  -9.047  1.00  0.00     0.050 A 
HETATM   32  N6  UNL     1      17.352  10.614  -8.831  1.00  0.00    -0.324 N 
HETATM   33  C31 UNL     1      17.209   9.199  -9.033  1.00  0.00     0.245 C 
HETATM   34  O4  UNL     1      17.521   8.418  -8.099  1.00  0.00    -0.271 OA
HETATM   35  C32 UNL     1      18.079   7.264  -5.196  1.00  0.00     0.030 A 
HETATM   36  C33 UNL     1      16.772   7.740  -5.088  1.00  0.00     0.002 A 
HETATM   37  C34 UNL     1      15.758   7.166  -5.849  1.00  0.00     0.001 A 
HETATM   38  C35 UNL     1      16.045   6.108  -6.709  1.00  0.00     0.019 A 
HETATM   39  O5  UNL     1      17.668   3.303  -7.004  1.00  0.00    -0.268 OA
HETATM   40  O6  UNL     1      14.988   5.358 -10.026  1.00  0.00    -0.271 OA
HETATM   41  H9  UNL     1      17.163   3.413  -9.458  1.00  0.00     0.163 HD
HETATM   42  H10 UNL     1      20.480   6.347  -5.562  1.00  0.00     0.169 HD
HETATM   43  H26 UNL     1      20.595   8.795  -5.773  1.00  0.00     0.163 HD
HETATM   44  H31 UNL     1      16.482  11.188  -8.899  1.00  0.00     0.169 HD
ENDROOT
BRANCH   7  45
HETATM   45  C36 UNL     1      17.824   5.022 -11.334  1.00  0.00     0.073 C 
BRANCH  45  46
HETATM   46  C37 UNL     1      18.709   5.992 -12.067  1.00  0.00    -0.056 A 
HETATM   47  C38 UNL     1      20.093   6.016 -11.824  1.00  0.00     0.007 A 
HETATM   48  C39 UNL     1      20.913   6.917 -12.513  1.00  0.00     0.001 A 
HETATM   49  C40 UNL     1      20.363   7.785 -13.461  1.00  0.00     0.000 A 
HETATM   50  C41 UNL     1      18.984   7.768 -13.704  1.00  0.00     0.001 A 
HETATM   51  C42 UNL     1      18.158   6.876 -13.012  1.00  0.00     0.007 A 
ENDBRANCH  45  46
ENDBRANCH   7  45
BRANCH  22  52
HETATM   52  C17 UNL     1      23.087   8.470  -6.882  1.00  0.00     0.073 C 
BRANCH  52  53
HETATM   53  C18 UNL     1      23.121   8.799  -5.403  1.00  0.00    -0.056 A 
HETATM   54  C19 UNL     1      23.118  10.129  -4.955  1.00  0.00     0.007 A 
HETATM   55  C20 UNL     1      23.141  10.413  -3.585  1.00  0.00     0.001 A 
HETATM   56  C21 UNL     1      23.156   9.376  -2.654  1.00  0.00     0.000 A 
HETATM   57  C22 UNL     1      23.145   8.051  -3.087  1.00  0.00     0.001 A 
HETATM   58  C23 UNL     1      23.114   7.762  -4.455  1.00  0.00     0.007 A 
ENDBRANCH  52  53
ENDBRANCH  22  52
TORSDOF 4
ENDMDL
MODEL 11
REMARK VINA RESULT:      -9.9      1.813      2.583
REMARK  4 active torsions:
REMARK  status: ('A' for Active; 'I' for Inactive)
REMARK    1  A    between atoms: C6_7  and  C36_47 
REMARK    2  A    between atoms: C16_22  and  C17_23 
REMARK    3  A    between atoms: C17_23  and  C18_24 
REMARK    4  A    between atoms: C36_47  and  C37_48 
ROOT
HETATM    1  C1  UNL     1      20.717   9.576  -9.484  1.00  0.00     0.179 C 
HETATM    2  N1  UNL     1      20.293   9.663 -10.885  1.00  0.00    -0.337 N 
HETATM    3  C2  UNL     1      20.846  10.850 -11.527  1.00  0.00     0.127 C 
HETATM    4  C3  UNL     1      21.727  11.526 -10.487  1.00  0.00     0.022 C 
HETATM    5  C4  UNL     1      21.965  10.458  -9.432  1.00  0.00     0.037 C 
HETATM    6  C5  UNL     1      19.699   8.609 -11.685  1.00  0.00     0.243 C 
HETATM    7  C6  UNL     1      19.263   7.272 -11.115  1.00  0.00     0.181 C 
HETATM    8  N2  UNL     1      18.042   6.811 -11.799  1.00  0.00    -0.343 N 
HETATM    9  C7  UNL     1      16.697   7.145 -11.435  1.00  0.00     0.254 C 
HETATM   10  C8  UNL     1      16.378   8.296 -10.585  1.00  0.00     0.058 A 
HETATM   11  C9  UNL     1      15.729   8.186  -9.320  1.00  0.00     0.050 A 
HETATM   12  N3  UNL     1      15.515   6.939  -8.614  1.00  0.00    -0.324 N 
HETATM   13  C10 UNL     1      15.850   5.625  -9.068  1.00  0.00     0.245 C 
HETATM   14  O1  UNL     1      15.027   5.002  -9.793  1.00  0.00    -0.271 OA
HETATM   15  C11 UNL     1      17.183   5.007  -8.714  1.00  0.00     0.179 C 
HETATM   16  N4  UNL     1      17.534   5.186  -7.304  1.00  0.00    -0.337 N 
HETATM   17  C12 UNL     1      18.121   3.962  -6.761  1.00  0.00     0.127 C 
HETATM   18  C13 UNL     1      18.247   2.999  -7.931  1.00  0.00     0.022 C 
HETATM   19  C14 UNL     1      17.243   3.498  -8.956  1.00  0.00     0.037 C 
HETATM   20  C15 UNL     1      17.968   6.467  -6.819  1.00  0.00     0.243 C 
HETATM   21  O2  UNL     1      18.745   7.146  -7.533  1.00  0.00    -0.271 OA
HETATM   22  C16 UNL     1      17.595   7.026  -5.461  1.00  0.00     0.181 C 
HETATM   23  N5  UNL     1      17.022   8.373  -5.623  1.00  0.00    -0.343 N 
HETATM   24  C24 UNL     1      17.776   9.576  -5.819  1.00  0.00     0.254 C 
HETATM   25  O3  UNL     1      17.209  10.561  -6.363  1.00  0.00    -0.268 OA
HETATM   26  C25 UNL     1      19.170   9.734  -5.352  1.00  0.00     0.058 A 
HETATM   27  C26 UNL     1      19.491   9.339  -4.038  1.00  0.00     0.019 A 
HETATM   28  C27 UNL     1      20.761   9.583  -3.510  1.00  0.00     0.001 A 
HETATM   29  C28 UNL     1      21.716  10.251  -4.274  1.00  0.00     0.002 A 
HETATM   30  C29 UNL     1      21.401  10.688  -5.562  1.00  0.00     0.030 A 
HETATM   31  C30 UNL     1      20.142  10.423  -6.124  1.00  0.00     0.050 A 
HETATM   32  N6  UNL     1      19.863  10.921  -7.444  1.00  0.00    -0.324 N 
HETATM   33  C31 UNL     1      19.612  10.041  -8.552  1.00  0.00     0.245 C 
HETATM   34  O4  UNL     1      18.447   9.606  -8.729  1.00  0.00    -0.271 OA
HETATM   35  C32 UNL     1      15.283   9.365  -8.692  1.00  0.00     0.030 A 
HETATM   36  C33 UNL     1      15.485  10.617  -9.274  1.00  0.00     0.002 A 
HETATM   37  C34 UNL     1      16.131  10.716 -10.502  1.00  0.00     0.001 A 
HETATM   38  C35 UNL     1      16.563   9.566 -11.158  1.00  0.00     0.019 A 
HETATM   39  O5  UNL     1      15.747   6.527 -11.987  1.00  0.00    -0.268 OA
HETATM   40  O6  UNL     1      19.558   8.794 -12.924  1.00  0.00    -0.271 OA
HETATM   41  H9  UNL     1      18.146   6.194 -12.639  1.00  0.00     0.163 HD
HETATM   42  H10 UNL     1      15.054   6.985  -7.679  1.00  0.00     0.169 HD
HETATM   43  H26 UNL     1      16.030   8.426  -5.941  1.00  0.00     0.163 HD
HETATM   44  H31 UNL     1      20.212  11.878  -7.675  1.00  0.00     0.169 HD
ENDROOT
BRANCH   7  45
HETATM   45  C36 UNL     1      20.352   6.197 -11.344  1.00  0.00     0.073 C 
BRANCH  45  46
HETATM   46  C37 UNL     1      21.221   5.948 -10.142  1.00  0.00    -0.056 A 
HETATM   47  C38 UNL     1      20.840   5.004  -9.173  1.00  0.00     0.007 A 
HETATM   48  C39 UNL     1      21.654   4.772  -8.058  1.00  0.00     0.001 A 
HETATM   49  C40 UNL     1      22.861   5.463  -7.913  1.00  0.00     0.000 A 
HETATM   50  C41 UNL     1      23.243   6.406  -8.874  1.00  0.00     0.001 A 
HETATM   51  C42 UNL     1      22.429   6.650  -9.985  1.00  0.00     0.007 A 
ENDBRANCH  45  46
ENDBRANCH   7  45
BRANCH  22  52
HETATM   52  C17 UNL     1      16.681   6.139  -4.567  1.00  0.00     0.073 C 
BRANCH  52  53
HETATM   53  C18 UNL     1      17.273   5.704  -3.242  1.00  0.00    -0.056 A 
HETATM   54  C19 UNL     1      17.125   6.491  -2.088  1.00  0.00     0.007 A 
HETATM   55  C20 UNL     1      17.671   6.069  -0.871  1.00  0.00     0.001 A 
HETATM   56  C21 UNL     1      18.356   4.858  -0.792  1.00  0.00     0.000 A 
HETATM   57  C22 UNL     1      18.497   4.062  -1.928  1.00  0.00     0.001 A 
HETATM   58  C23 UNL     1      17.947   4.475  -3.145  1.00  0.00     0.007 A 
ENDBRANCH  52  53
ENDBRANCH  22  52
TORSDOF 4
ENDMDL
MODEL 12
REMARK VINA RESULT:      -9.7      1.840      3.417
REMARK  4 active torsions:
REMARK  status: ('A' for Active; 'I' for Inactive)
REMARK    1  A    between atoms: C6_7  and  C36_47 
REMARK    2  A    between atoms: C16_22  and  C17_23 
REMARK    3  A    between atoms: C17_23  and  C18_24 
REMARK    4  A    between atoms: C36_47  and  C37_48 
ROOT
HETATM    1  C1  UNL     1      21.494   8.006  -7.859  1.00  0.00     0.179 C 
HETATM    2  N1  UNL     1      20.847   7.636  -9.123  1.00  0.00    -0.337 N 
HETATM    3  C2  UNL     1      21.085   8.644 -10.149  1.00  0.00     0.127 C 
HETATM    4  C3  UNL     1      21.991   9.690  -9.516  1.00  0.00     0.022 C 
HETATM    5  C4  UNL     1      22.567   9.007  -8.287  1.00  0.00     0.037 C 
HETATM    6  C5  UNL     1      20.322   6.333  -9.486  1.00  0.00     0.243 C 
HETATM    7  C6  UNL     1      20.213   5.175  -8.512  1.00  0.00     0.181 C 
HETATM    8  N2  UNL     1      18.995   4.395  -8.797  1.00  0.00    -0.343 N 
HETATM    9  C7  UNL     1      17.686   4.659  -8.276  1.00  0.00     0.254 C 
HETATM   10  C8  UNL     1      17.314   5.959  -7.711  1.00  0.00     0.058 A 
HETATM   11  C9  UNL     1      16.899   6.141  -6.360  1.00  0.00     0.050 A 
HETATM   12  N3  UNL     1      17.011   5.135  -5.324  1.00  0.00    -0.324 N 
HETATM   13  C10 UNL     1      17.488   3.794  -5.475  1.00  0.00     0.245 C 
HETATM   14  O1  UNL     1      16.678   2.896  -5.835  1.00  0.00    -0.271 OA
HETATM   15  C11 UNL     1      18.944   3.467  -5.241  1.00  0.00     0.179 C 
HETATM   16  N4  UNL     1      19.476   4.085  -4.025  1.00  0.00    -0.337 N 
HETATM   17  C12 UNL     1      20.338   3.147  -3.307  1.00  0.00     0.127 C 
HETATM   18  C13 UNL     1      20.440   1.910  -4.186  1.00  0.00     0.022 C 
HETATM   19  C14 UNL     1      19.219   1.970  -5.086  1.00  0.00     0.037 C 
HETATM   20  C15 UNL     1      19.758   5.493  -3.987  1.00  0.00     0.243 C 
HETATM   21  O2  UNL     1      20.288   6.025  -4.992  1.00  0.00    -0.271 OA
HETATM   22  C16 UNL     1      19.512   6.370  -2.777  1.00  0.00     0.181 C 
HETATM   23  N5  UNL     1      18.703   7.536  -3.169  1.00  0.00    -0.343 N 
HETATM   24  C24 UNL     1      19.203   8.713  -3.818  1.00  0.00     0.254 C 
HETATM   25  O3  UNL     1      18.400   9.425  -4.478  1.00  0.00    -0.268 OA
HETATM   26  C25 UNL     1      20.607   9.162  -3.692  1.00  0.00     0.058 A 
HETATM   27  C26 UNL     1      21.190   9.203  -2.411  1.00  0.00     0.019 A 
HETATM   28  C27 UNL     1      22.468   9.737  -2.225  1.00  0.00     0.001 A 
HETATM   29  C28 UNL     1      23.165  10.265  -3.310  1.00  0.00     0.002 A 
HETATM   30  C29 UNL     1      22.583  10.272  -4.580  1.00  0.00     0.030 A 
HETATM   31  C30 UNL     1      21.315   9.710  -4.794  1.00  0.00     0.050 A 
HETATM   32  N6  UNL     1      20.754   9.770  -6.116  1.00  0.00    -0.324 N 
HETATM   33  C31 UNL     1      20.485   8.585  -6.883  1.00  0.00     0.245 C 
HETATM   34  O4  UNL     1      19.397   7.983  -6.707  1.00  0.00    -0.271 OA
HETATM   35  C32 UNL     1      16.364   7.390  -5.986  1.00  0.00     0.030 A 
HETATM   36  C33 UNL     1      16.259   8.436  -6.903  1.00  0.00     0.002 A 
HETATM   37  C34 UNL     1      16.679   8.254  -8.218  1.00  0.00     0.001 A 
HETATM   38  C35 UNL     1      17.191   7.023  -8.622  1.00  0.00     0.019 A 
HETATM   39  O5  UNL     1      16.779   3.799  -8.449  1.00  0.00    -0.268 OA
HETATM   40  O6  UNL     1      19.961   6.136 -10.677  1.00  0.00    -0.271 OA
HETATM   41  H9  UNL     1      19.068   3.579  -9.450  1.00  0.00     0.163 HD
HETATM   42  H10 UNL     1      16.700   5.392  -4.362  1.00  0.00     0.169 HD
HETATM   43  H26 UNL     1      17.679   7.378  -3.289  1.00  0.00     0.163 HD
HETATM   44  H31 UNL     1      20.897  10.654  -6.653  1.00  0.00     0.169 HD
ENDROOT
BRANCH   7  45
HETATM   45  C36 UNL     1      21.417   4.217  -8.661  1.00  0.00     0.073 C 
BRANCH  45  46
HETATM   46  C37 UNL     1      21.054   2.867  -9.219  1.00  0.00    -0.056 A 
HETATM   47  C38 UNL     1      20.808   1.785  -8.357  1.00  0.00     0.007 A 
HETATM   48  C39 UNL     1      20.466   0.533  -8.880  1.00  0.00     0.001 A 
HETATM   49  C40 UNL     1      20.348   0.357 -10.263  1.00  0.00     0.000 A 
HETATM   50  C41 UNL     1      20.596   1.431 -11.125  1.00  0.00     0.001 A 
HETATM   51  C42 UNL     1      20.947   2.683 -10.609  1.00  0.00     0.007 A 
ENDBRANCH  45  46
ENDBRANCH   7  45
BRANCH  22  52
HETATM   52  C17 UNL     1      18.912   5.676  -1.520  1.00  0.00     0.073 C 
BRANCH  52  53
HETATM   53  C18 UNL     1      17.410   5.792  -1.356  1.00  0.00    -0.056 A 
HETATM   54  C19 UNL     1      16.536   4.948  -2.059  1.00  0.00     0.007 A 
HETATM   55  C20 UNL     1      15.152   5.064  -1.887  1.00  0.00     0.001 A 
HETATM   56  C21 UNL     1      14.630   6.010  -1.006  1.00  0.00     0.000 A 
HETATM   57  C22 UNL     1      15.490   6.844  -0.291  1.00  0.00     0.001 A 
HETATM   58  C23 UNL     1      16.874   6.727  -0.454  1.00  0.00     0.007 A 
ENDBRANCH  52  53
ENDBRANCH  22  52
TORSDOF 4
ENDMDL
MODEL 13
REMARK VINA RESULT:      -9.7      1.756      2.444
REMARK  4 active torsions:
REMARK  status: ('A' for Active; 'I' for Inactive)
REMARK    1  A    between atoms: C6_7  and  C36_47 
REMARK    2  A    between atoms: C16_22  and  C17_23 
REMARK    3  A    between atoms: C17_23  and  C18_24 
REMARK    4  A    between atoms: C36_47  and  C37_48 
ROOT
HETATM    1  C1  UNL     1      20.560  10.885  -8.734  1.00  0.00     0.179 C 
HETATM    2  N1  UNL     1      20.038  11.447  -9.985  1.00  0.00    -0.337 N 
HETATM    3  C2  UNL     1      20.167  12.899 -10.000  1.00  0.00     0.127 C 
HETATM    4  C3  UNL     1      20.871  13.279  -8.706  1.00  0.00     0.022 C 
HETATM    5  C4  UNL     1      21.486  11.981  -8.208  1.00  0.00     0.037 C 
HETATM    6  C5  UNL     1      19.737  10.727 -11.207  1.00  0.00     0.243 C 
HETATM    7  C6  UNL     1      19.760   9.213 -11.313  1.00  0.00     0.181 C 
HETATM    8  N2  UNL     1      18.691   8.759 -12.220  1.00  0.00    -0.343 N 
HETATM    9  C7  UNL     1      17.334   8.484 -11.850  1.00  0.00     0.254 C 
HETATM   10  C8  UNL     1      16.741   8.992 -10.610  1.00  0.00     0.058 A 
HETATM   11  C9  UNL     1      16.239   8.152  -9.573  1.00  0.00     0.050 A 
HETATM   12  N3  UNL     1      16.455   6.722  -9.501  1.00  0.00    -0.324 N 
HETATM   13  C10 UNL     1      17.138   5.905 -10.456  1.00  0.00     0.245 C 
HETATM   14  O1  UNL     1      16.493   5.450 -11.441  1.00  0.00    -0.271 OA
HETATM   15  C11 UNL     1      18.615   5.621 -10.307  1.00  0.00     0.179 C 
HETATM   16  N4  UNL     1      18.987   5.260  -8.938  1.00  0.00    -0.337 N 
HETATM   17  C12 UNL     1      19.949   4.158  -8.940  1.00  0.00     0.127 C 
HETATM   18  C13 UNL     1      20.280   3.891 -10.401  1.00  0.00     0.022 C 
HETATM   19  C14 UNL     1      19.108   4.465 -11.178  1.00  0.00     0.037 C 
HETATM   20  C15 UNL     1      19.048   6.263  -7.911  1.00  0.00     0.243 C 
HETATM   21  O2  UNL     1      19.537   7.382  -8.196  1.00  0.00    -0.271 OA
HETATM   22  C16 UNL     1      18.614   6.031  -6.478  1.00  0.00     0.181 C 
HETATM   23  N5  UNL     1      17.655   7.075  -6.079  1.00  0.00    -0.343 N 
HETATM   24  C24 UNL     1      17.999   8.406  -5.672  1.00  0.00     0.254 C 
HETATM   25  O3  UNL     1      17.129   9.310  -5.773  1.00  0.00    -0.268 OA
HETATM   26  C25 UNL     1      19.310   8.749  -5.079  1.00  0.00     0.058 A 
HETATM   27  C26 UNL     1      19.819   7.934  -4.049  1.00  0.00     0.019 A 
HETATM   28  C27 UNL     1      20.989   8.286  -3.372  1.00  0.00     0.001 A 
HETATM   29  C28 UNL     1      21.648   9.471  -3.693  1.00  0.00     0.002 A 
HETATM   30  C29 UNL     1      21.133  10.313  -4.682  1.00  0.00     0.030 A 
HETATM   31  C30 UNL     1      19.977   9.961  -5.396  1.00  0.00     0.050 A 
HETATM   32  N6  UNL     1      19.477  10.879  -6.384  1.00  0.00    -0.324 N 
HETATM   33  C31 UNL     1      19.429  10.543  -7.780  1.00  0.00     0.245 C 
HETATM   34  O4  UNL     1      18.439   9.905  -8.217  1.00  0.00    -0.271 OA
HETATM   35  C32 UNL     1      15.502   8.744  -8.529  1.00  0.00     0.030 A 
HETATM   36  C33 UNL     1      15.282  10.121  -8.489  1.00  0.00     0.002 A 
HETATM   37  C34 UNL     1      15.786  10.936  -9.498  1.00  0.00     0.001 A 
HETATM   38  C35 UNL     1      16.499  10.376 -10.556  1.00  0.00     0.019 A 
HETATM   39  O5  UNL     1      16.579   7.918 -12.687  1.00  0.00    -0.268 OA
HETATM   40  O6  UNL     1      19.466  11.385 -12.248  1.00  0.00    -0.271 OA
HETATM   41  H9  UNL     1      18.919   8.634 -13.235  1.00  0.00     0.163 HD
HETATM   42  H10 UNL     1      16.063   6.214  -8.678  1.00  0.00     0.169 HD
HETATM   43  H26 UNL     1      16.674   6.965  -6.416  1.00  0.00     0.163 HD
HETATM   44  H31 UNL     1      19.507  11.895  -6.146  1.00  0.00     0.169 HD
ENDROOT
BRANCH   7  45
HETATM   45  C36 UNL     1      21.103   8.725 -11.904  1.00  0.00     0.073 C 
BRANCH  45  46
HETATM   46  C37 UNL     1      22.144   8.407 -10.866  1.00  0.00    -0.056 A 
HETATM   47  C38 UNL     1      23.199   9.301 -10.620  1.00  0.00     0.007 A 
HETATM   48  C39 UNL     1      24.162   9.002  -9.649  1.00  0.00     0.001 A 
HETATM   49  C40 UNL     1      24.068   7.821  -8.905  1.00  0.00     0.000 A 
HETATM   50  C41 UNL     1      23.021   6.926  -9.150  1.00  0.00     0.001 A 
HETATM   51  C42 UNL     1      22.060   7.214 -10.125  1.00  0.00     0.007 A 
ENDBRANCH  45  46
ENDBRANCH   7  45
BRANCH  22  52
HETATM   52  C17 UNL     1      18.068   4.615  -6.134  1.00  0.00     0.073 C 
BRANCH  52  53
HETATM   53  C18 UNL     1      18.884   3.817  -5.137  1.00  0.00    -0.056 A 
HETATM   54  C19 UNL     1      19.027   4.245  -3.807  1.00  0.00     0.007 A 
HETATM   55  C20 UNL     1      19.776   3.490  -2.899  1.00  0.00     0.001 A 
HETATM   56  C21 UNL     1      20.378   2.299  -3.304  1.00  0.00     0.000 A 
HETATM   57  C22 UNL     1      20.230   1.857  -4.618  1.00  0.00     0.001 A 
HETATM   58  C23 UNL     1      19.476   2.604  -5.528  1.00  0.00     0.007 A 
ENDBRANCH  52  53
ENDBRANCH  22  52
TORSDOF 4
ENDMDL
MODEL 14
REMARK VINA RESULT:      -9.6      2.151      6.052
REMARK  4 active torsions:
REMARK  status: ('A' for Active; 'I' for Inactive)
REMARK    1  A    between atoms: C6_7  and  C36_47 
REMARK    2  A    between atoms: C16_22  and  C17_23 
REMARK    3  A    between atoms: C17_23  and  C18_24 
REMARK    4  A    between atoms: C36_47  and  C37_48 
ROOT
HETATM    1  C1  UNL     1      16.645   6.565  -9.667  1.00  0.00     0.179 C 
HETATM    2  N1  UNL     1      16.429   5.247  -9.061  1.00  0.00    -0.337 N 
HETATM    3  C2  UNL     1      15.111   4.725  -9.400  1.00  0.00     0.127 C 
HETATM    4  C3  UNL     1      14.473   5.746 -10.329  1.00  0.00     0.022 C 
HETATM    5  C4  UNL     1      15.632   6.604 -10.811  1.00  0.00     0.037 C 
HETATM    6  C5  UNL     1      17.435   4.375  -8.485  1.00  0.00     0.243 C 
HETATM    7  C6  UNL     1      18.878   4.792  -8.269  1.00  0.00     0.181 C 
HETATM    8  N2  UNL     1      19.391   4.189  -7.026  1.00  0.00    -0.343 N 
HETATM    9  C7  UNL     1      19.273   4.746  -5.710  1.00  0.00     0.254 C 
HETATM   10  C8  UNL     1      18.290   5.783  -5.382  1.00  0.00     0.058 A 
HETATM   11  C9  UNL     1      18.643   7.083  -4.915  1.00  0.00     0.050 A 
HETATM   12  N3  UNL     1      19.987   7.621  -4.925  1.00  0.00    -0.324 N 
HETATM   13  C10 UNL     1      21.180   6.949  -5.336  1.00  0.00     0.245 C 
HETATM   14  O1  UNL     1      21.799   6.238  -4.498  1.00  0.00    -0.271 OA
HETATM   15  C11 UNL     1      21.672   7.060  -6.761  1.00  0.00     0.179 C 
HETATM   16  N4  UNL     1      21.636   8.433  -7.268  1.00  0.00    -0.337 N 
HETATM   17  C12 UNL     1      22.840   8.725  -8.045  1.00  0.00     0.127 C 
HETATM   18  C13 UNL     1      23.620   7.422  -8.122  1.00  0.00     0.022 C 
HETATM   19  C14 UNL     1      23.118   6.598  -6.948  1.00  0.00     0.037 C 
HETATM   20  C15 UNL     1      20.386   9.045  -7.623  1.00  0.00     0.243 C 
HETATM   21  O2  UNL     1      19.531   8.355  -8.226  1.00  0.00    -0.271 OA
HETATM   22  C16 UNL     1      20.058  10.502  -7.368  1.00  0.00     0.181 C 
HETATM   23  N5  UNL     1      18.782  10.601  -6.641  1.00  0.00    -0.343 N 
HETATM   24  C24 UNL     1      17.480  10.497  -7.233  1.00  0.00     0.254 C 
HETATM   25  O3  UNL     1      16.510  10.167  -6.500  1.00  0.00    -0.268 OA
HETATM   26  C25 UNL     1      17.216  10.824  -8.651  1.00  0.00     0.058 A 
HETATM   27  C26 UNL     1      17.736  12.022  -9.176  1.00  0.00     0.019 A 
HETATM   28  C27 UNL     1      17.409  12.435 -10.470  1.00  0.00     0.001 A 
HETATM   29  C28 UNL     1      16.536  11.674 -11.244  1.00  0.00     0.002 A 
HETATM   30  C29 UNL     1      15.978  10.505 -10.723  1.00  0.00     0.030 A 
HETATM   31  C30 UNL     1      16.318  10.055  -9.438  1.00  0.00     0.050 A 
HETATM   32  N6  UNL     1      15.691   8.859  -8.943  1.00  0.00    -0.324 N 
HETATM   33  C31 UNL     1      16.443   7.672  -8.646  1.00  0.00     0.245 C 
HETATM   34  O4  UNL     1      16.990   7.565  -7.521  1.00  0.00    -0.271 OA
HETATM   35  C32 UNL     1      17.619   7.920  -4.431  1.00  0.00     0.030 A 
HETATM   36  C33 UNL     1      16.287   7.505  -4.424  1.00  0.00     0.002 A 
HETATM   37  C34 UNL     1      15.950   6.239  -4.894  1.00  0.00     0.001 A 
HETATM   38  C35 UNL     1      16.944   5.381  -5.358  1.00  0.00     0.019 A 
HETATM   39  O5  UNL     1      19.926   4.220  -4.768  1.00  0.00    -0.268 OA
HETATM   40  O6  UNL     1      17.109   3.199  -8.169  1.00  0.00    -0.271 OA
HETATM   41  H9  UNL     1      19.876   3.263  -7.086  1.00  0.00     0.163 HD
HETATM   42  H10 UNL     1      20.120   8.599  -4.585  1.00  0.00     0.169 HD
HETATM   43  H26 UNL     1      18.809  10.406  -5.617  1.00  0.00     0.163 HD
HETATM   44  H31 UNL     1      14.677   8.731  -9.157  1.00  0.00     0.169 HD
ENDROOT
BRANCH   7  45
HETATM   45  C36 UNL     1      19.772   4.291  -9.426  1.00  0.00     0.073 C 
BRANCH  45  46
HETATM   46  C37 UNL     1      20.093   5.349 -10.447  1.00  0.00    -0.056 A 
HETATM   47  C38 UNL     1      21.231   6.159 -10.297  1.00  0.00     0.007 A 
HETATM   48  C39 UNL     1      21.528   7.138 -11.253  1.00  0.00     0.001 A 
HETATM   49  C40 UNL     1      20.705   7.302 -12.371  1.00  0.00     0.000 A 
HETATM   50  C41 UNL     1      19.568   6.500 -12.522  1.00  0.00     0.001 A 
HETATM   51  C42 UNL     1      19.260   5.526 -11.566  1.00  0.00     0.007 A 
ENDBRANCH  45  46
ENDBRANCH   7  45
BRANCH  22  52
HETATM   52  C17 UNL     1      21.159  11.356  -6.674  1.00  0.00     0.073 C 
BRANCH  52  53
HETATM   53  C18 UNL     1      21.620  10.863  -5.318  1.00  0.00    -0.056 A 
HETATM   54  C19 UNL     1      22.944  10.442  -5.111  1.00  0.00     0.007 A 
HETATM   55  C20 UNL     1      23.355   9.999  -3.849  1.00  0.00     0.001 A 
HETATM   56  C21 UNL     1      22.455   9.982  -2.784  1.00  0.00     0.000 A 
HETATM   57  C22 UNL     1      21.142  10.411  -2.975  1.00  0.00     0.001 A 
HETATM   58  C23 UNL     1      20.729  10.862  -4.232  1.00  0.00     0.007 A 
ENDBRANCH  52  53
ENDBRANCH  22  52
TORSDOF 4
ENDMDL
MODEL 15
REMARK VINA RESULT:      -9.5      2.203      6.002
REMARK  4 active torsions:
REMARK  status: ('A' for Active; 'I' for Inactive)
REMARK    1  A    between atoms: C6_7  and  C36_47 
REMARK    2  A    between atoms: C16_22  and  C17_23 
REMARK    3  A    between atoms: C17_23  and  C18_24 
REMARK    4  A    between atoms: C36_47  and  C37_48 
ROOT
HETATM    1  C1  UNL     1      17.830   7.595  -5.566  1.00  0.00     0.179 C 
HETATM    2  N1  UNL     1      17.109   8.714  -6.182  1.00  0.00    -0.337 N 
HETATM    3  C2  UNL     1      15.829   8.939  -5.520  1.00  0.00     0.127 C 
HETATM    4  C3  UNL     1      15.761   7.943  -4.373  1.00  0.00     0.022 C 
HETATM    5  C4  UNL     1      17.195   7.480  -4.180  1.00  0.00     0.037 C 
HETATM    6  C5  UNL     1      17.650   9.711  -7.086  1.00  0.00     0.243 C 
HETATM    7  C6  UNL     1      19.047   9.635  -7.674  1.00  0.00     0.181 C 
HETATM    8  N2  UNL     1      19.037  10.154  -9.053  1.00  0.00    -0.343 N 
HETATM    9  C7  UNL     1      18.746   9.395 -10.235  1.00  0.00     0.254 C 
HETATM   10  C8  UNL     1      18.041   8.111 -10.189  1.00  0.00     0.058 A 
HETATM   11  C9  UNL     1      18.609   6.884 -10.638  1.00  0.00     0.050 A 
HETATM   12  N3  UNL     1      20.006   6.701 -10.973  1.00  0.00    -0.324 N 
HETATM   13  C10 UNL     1      21.030   7.700 -10.972  1.00  0.00     0.245 C 
HETATM   14  O1  UNL     1      21.190   8.408 -12.004  1.00  0.00    -0.271 OA
HETATM   15  C11 UNL     1      21.880   7.928  -9.744  1.00  0.00     0.179 C 
HETATM   16  N4  UNL     1      22.358   6.680  -9.146  1.00  0.00    -0.337 N 
HETATM   17  C12 UNL     1      23.753   6.813  -8.726  1.00  0.00     0.127 C 
HETATM   18  C13 UNL     1      24.132   8.264  -8.974  1.00  0.00     0.022 C 
HETATM   19  C14 UNL     1      23.138   8.755 -10.013  1.00  0.00     0.037 C 
HETATM   20  C15 UNL     1      21.462   5.838  -8.403  1.00  0.00     0.243 C 
HETATM   21  O2  UNL     1      20.632   6.379  -7.634  1.00  0.00    -0.271 OA
HETATM   22  C16 UNL     1      21.499   4.324  -8.443  1.00  0.00     0.181 C 
HETATM   23  N5  UNL     1      20.158   3.807  -8.765  1.00  0.00    -0.343 N 
HETATM   24  C24 UNL     1      19.075   3.674  -7.834  1.00  0.00     0.254 C 
HETATM   25  O3  UNL     1      17.898   3.641  -8.281  1.00  0.00    -0.268 OA
HETATM   26  C25 UNL     1      19.284   3.507  -6.380  1.00  0.00     0.058 A 
HETATM   27  C26 UNL     1      20.233   2.566  -5.937  1.00  0.00     0.019 A 
HETATM   28  C27 UNL     1      20.377   2.283  -4.576  1.00  0.00     0.001 A 
HETATM   29  C28 UNL     1      19.555   2.912  -3.644  1.00  0.00     0.002 A 
HETATM   30  C29 UNL     1      18.579   3.816  -4.070  1.00  0.00     0.030 A 
HETATM   31  C30 UNL     1      18.440   4.139  -5.429  1.00  0.00     0.050 A 
HETATM   32  N6  UNL     1      17.400   5.055  -5.812  1.00  0.00    -0.324 N 
HETATM   33  C31 UNL     1      17.691   6.334  -6.400  1.00  0.00     0.245 C 
HETATM   34  O4  UNL     1      17.880   6.403  -7.640  1.00  0.00    -0.271 OA
HETATM   35  C32 UNL     1      17.771   5.757 -10.745  1.00  0.00     0.030 A 
HETATM   36  C33 UNL     1      16.420   5.825 -10.400  1.00  0.00     0.002 A 
HETATM   37  C34 UNL     1      15.876   7.024  -9.951  1.00  0.00     0.001 A 
HETATM   38  C35 UNL     1      16.676   8.161  -9.856  1.00  0.00     0.019 A 
HETATM   39  O5  UNL     1      18.964   9.920 -11.361  1.00  0.00    -0.268 OA
HETATM   40  O6  UNL     1      16.940  10.709  -7.383  1.00  0.00    -0.271 OA
HETATM   41  H9  UNL     1      19.244  11.169  -9.205  1.00  0.00     0.163 HD
HETATM   42  H10 UNL     1      20.315   5.747 -11.263  1.00  0.00     0.169 HD
HETATM   43  H26 UNL     1      19.867   3.846  -9.765  1.00  0.00     0.163 HD
HETATM   44  H31 UNL     1      16.481   4.960  -5.327  1.00  0.00     0.169 HD
ENDROOT
BRANCH   7  45
HETATM   45  C36 UNL     1      20.032  10.508  -6.862  1.00  0.00     0.073 C 
BRANCH  45  46
HETATM   46  C37 UNL     1      20.899   9.725  -5.915  1.00  0.00    -0.056 A 
HETATM   47  C38 UNL     1      22.156   9.252  -6.328  1.00  0.00     0.007 A 
HETATM   48  C39 UNL     1      22.961   8.527  -5.442  1.00  0.00     0.001 A 
HETATM   49  C40 UNL     1      22.528   8.288  -4.134  1.00  0.00     0.000 A 
HETATM   50  C41 UNL     1      21.275   8.754  -3.719  1.00  0.00     0.001 A 
HETATM   51  C42 UNL     1      20.461   9.470  -4.603  1.00  0.00     0.007 A 
ENDBRANCH  45  46
ENDBRANCH   7  45
BRANCH  22  52
HETATM   52  C17 UNL     1      22.578   3.675  -9.357  1.00  0.00     0.073 C 
BRANCH  52  53
HETATM   53  C18 UNL     1      23.727   2.995  -8.642  1.00  0.00    -0.056 A 
HETATM   54  C19 UNL     1      25.057   3.379  -8.877  1.00  0.00     0.007 A 
HETATM   55  C20 UNL     1      26.106   2.745  -8.200  1.00  0.00     0.001 A 
HETATM   56  C21 UNL     1      25.837   1.735  -7.277  1.00  0.00     0.000 A 
HETATM   57  C22 UNL     1      24.518   1.356  -7.025  1.00  0.00     0.001 A 
HETATM   58  C23 UNL     1      23.467   1.991  -7.694  1.00  0.00     0.007 A 
ENDBRANCH  52  53
ENDBRANCH  22  52
TORSDOF 4
ENDMDL
MODEL 16
REMARK VINA RESULT:      -9.4      2.265      6.659
REMARK  4 active torsions:
REMARK  status: ('A' for Active; 'I' for Inactive)
REMARK    1  A    between atoms: C6_7  and  C36_47 
REMARK    2  A    between atoms: C16_22  and  C17_23 
REMARK    3  A    between atoms: C17_23  and  C18_24 
REMARK    4  A    between atoms: C36_47  and  C37_48 
ROOT
HETATM    1  C1  UNL     1      17.973   9.153  -8.611  1.00  0.00     0.179 C 
HETATM    2  N1  UNL     1      17.519   9.919  -7.446  1.00  0.00    -0.337 N 
HETATM    3  C2  UNL     1      17.051  11.243  -7.839  1.00  0.00     0.127 C 
HETATM    4  C3  UNL     1      17.157  11.299  -9.355  1.00  0.00     0.022 C 
HETATM    5  C4  UNL     1      17.285   9.848  -9.786  1.00  0.00     0.037 C 
HETATM    6  C5  UNL     1      17.225   9.404  -6.122  1.00  0.00     0.243 C 
HETATM    7  C6  UNL     1      17.520   7.977  -5.696  1.00  0.00     0.181 C 
HETATM    8  N2  UNL     1      17.940   7.954  -4.284  1.00  0.00    -0.343 N 
HETATM    9  C7  UNL     1      19.278   8.131  -3.801  1.00  0.00     0.254 C 
HETATM   10  C8  UNL     1      20.330   8.747  -4.616  1.00  0.00     0.058 A 
HETATM   11  C9  UNL     1      21.526   8.073  -4.998  1.00  0.00     0.050 A 
HETATM   12  N3  UNL     1      21.753   6.651  -4.840  1.00  0.00    -0.324 N 
HETATM   13  C10 UNL     1      20.872   5.701  -4.234  1.00  0.00     0.245 C 
HETATM   14  O1  UNL     1      20.917   5.538  -2.984  1.00  0.00    -0.271 OA
HETATM   15  C11 UNL     1      19.879   4.932  -5.073  1.00  0.00     0.179 C 
HETATM   16  N4  UNL     1      20.468   4.399  -6.303  1.00  0.00    -0.337 N 
HETATM   17  C12 UNL     1      19.990   3.040  -6.555  1.00  0.00     0.127 C 
HETATM   18  C13 UNL     1      18.955   2.750  -5.479  1.00  0.00     0.022 C 
HETATM   19  C14 UNL     1      19.277   3.722  -4.356  1.00  0.00     0.037 C 
HETATM   20  C15 UNL     1      20.766   5.271  -7.405  1.00  0.00     0.243 C 
HETATM   21  O2  UNL     1      19.944   6.174  -7.693  1.00  0.00    -0.271 OA
HETATM   22  C16 UNL     1      21.988   5.126  -8.289  1.00  0.00     0.181 C 
HETATM   23  N5  UNL     1      22.707   6.410  -8.347  1.00  0.00    -0.343 N 
HETATM   24  C24 UNL     1      22.345   7.526  -9.171  1.00  0.00     0.254 C 
HETATM   25  O3  UNL     1      22.742   8.674  -8.837  1.00  0.00    -0.268 OA
HETATM   26  C25 UNL     1      21.584   7.380 -10.430  1.00  0.00     0.058 A 
HETATM   27  C26 UNL     1      21.983   6.391 -11.350  1.00  0.00     0.019 A 
HETATM   28  C27 UNL     1      21.375   6.297 -12.605  1.00  0.00     0.001 A 
HETATM   29  C28 UNL     1      20.385   7.207 -12.969  1.00  0.00     0.002 A 
HETATM   30  C29 UNL     1      20.008   8.220 -12.085  1.00  0.00     0.030 A 
HETATM   31  C30 UNL     1      20.582   8.312 -10.807  1.00  0.00     0.050 A 
HETATM   32  N6  UNL     1      20.175   9.393  -9.950  1.00  0.00    -0.324 N 
HETATM   33  C31 UNL     1      19.489   9.163  -8.709  1.00  0.00     0.245 C 
HETATM   34  O4  UNL     1      20.165   8.917  -7.679  1.00  0.00    -0.271 OA
HETATM   35  C32 UNL     1      22.557   8.825  -5.596  1.00  0.00     0.030 A 
HETATM   36  C33 UNL     1      22.411  10.192  -5.832  1.00  0.00     0.002 A 
HETATM   37  C34 UNL     1      21.236  10.840  -5.466  1.00  0.00     0.001 A 
HETATM   38  C35 UNL     1      20.208  10.127  -4.853  1.00  0.00     0.019 A 
HETATM   39  O5  UNL     1      19.522   7.894  -2.587  1.00  0.00    -0.268 OA
HETATM   40  O6  UNL     1      16.673  10.165  -5.283  1.00  0.00    -0.271 OA
HETATM   41  H9  UNL     1      17.207   7.811  -3.549  1.00  0.00     0.163 HD
HETATM   42  H10 UNL     1      22.659   6.263  -5.185  1.00  0.00     0.169 HD
HETATM   43  H26 UNL     1      23.303   6.652  -7.527  1.00  0.00     0.163 HD
HETATM   44  H31 UNL     1      20.037  10.327 -10.396  1.00  0.00     0.169 HD
ENDROOT
BRANCH   7  45
HETATM   45  C36 UNL     1      16.254   7.098  -5.813  1.00  0.00     0.073 C 
BRANCH  45  46
HETATM   46  C37 UNL     1      16.246   6.203  -7.023  1.00  0.00    -0.056 A 
HETATM   47  C38 UNL     1      16.694   4.875  -6.927  1.00  0.00     0.007 A 
HETATM   48  C39 UNL     1      16.680   4.045  -8.054  1.00  0.00     0.001 A 
HETATM   49  C40 UNL     1      16.201   4.527  -9.277  1.00  0.00     0.000 A 
HETATM   50  C41 UNL     1      15.757   5.850  -9.377  1.00  0.00     0.001 A 
HETATM   51  C42 UNL     1      15.777   6.688  -8.257  1.00  0.00     0.007 A 
ENDBRANCH  45  46
ENDBRANCH   7  45
BRANCH  22  52
HETATM   52  C17 UNL     1      22.961   3.960  -7.951  1.00  0.00     0.073 C 
BRANCH  52  53
HETATM   53  C18 UNL     1      23.547   3.223  -9.138  1.00  0.00    -0.056 A 
HETATM   54  C19 UNL     1      24.898   2.843  -9.161  1.00  0.00     0.007 A 
HETATM   55  C20 UNL     1      25.419   2.154 -10.263  1.00  0.00     0.001 A 
HETATM   56  C21 UNL     1      24.597   1.830 -11.341  1.00  0.00     0.000 A 
HETATM   57  C22 UNL     1      23.249   2.189 -11.321  1.00  0.00     0.001 A 
HETATM   58  C23 UNL     1      22.722   2.871 -10.220  1.00  0.00     0.007 A 
ENDBRANCH  52  53
ENDBRANCH  22  52
TORSDOF 4
ENDMDL
MODEL 17
REMARK VINA RESULT:      -9.4      2.365      6.633
REMARK  4 active torsions:
REMARK  status: ('A' for Active; 'I' for Inactive)
REMARK    1  A    between atoms: C6_7  and  C36_47 
REMARK    2  A    between atoms: C16_22  and  C17_23 
REMARK    3  A    between atoms: C17_23  and  C18_24 
REMARK    4  A    between atoms: C36_47  and  C37_48 
ROOT
HETATM    1  C1  UNL     1      16.735   6.412  -9.851  1.00  0.00     0.179 C 
HETATM    2  N1  UNL     1      16.841   6.065 -11.272  1.00  0.00    -0.337 N 
HETATM    3  C2  UNL     1      15.922   4.987 -11.617  1.00  0.00     0.127 C 
HETATM    4  C3  UNL     1      15.141   4.671 -10.351  1.00  0.00     0.022 C 
HETATM    5  C4  UNL     1      15.360   5.877  -9.453  1.00  0.00     0.037 C 
HETATM    6  C5  UNL     1      17.480   6.843 -12.316  1.00  0.00     0.243 C 
HETATM    7  C6  UNL     1      18.305   8.087 -12.045  1.00  0.00     0.181 C 
HETATM    8  N2  UNL     1      19.436   8.153 -12.988  1.00  0.00    -0.343 N 
HETATM    9  C7  UNL     1      20.719   7.540 -12.806  1.00  0.00     0.254 C 
HETATM   10  C8  UNL     1      20.940   6.450 -11.851  1.00  0.00     0.058 A 
HETATM   11  C9  UNL     1      21.836   6.540 -10.747  1.00  0.00     0.050 A 
HETATM   12  N3  UNL     1      22.457   7.767 -10.292  1.00  0.00    -0.324 N 
HETATM   13  C10 UNL     1      22.337   9.063 -10.884  1.00  0.00     0.245 C 
HETATM   14  O1  UNL     1      23.115   9.378 -11.826  1.00  0.00    -0.271 OA
HETATM   15  C11 UNL     1      21.272  10.027 -10.413  1.00  0.00     0.179 C 
HETATM   16  N4  UNL     1      21.179  10.101  -8.954  1.00  0.00    -0.337 N 
HETATM   17  C12 UNL     1      20.997  11.485  -8.520  1.00  0.00     0.127 C 
HETATM   18  C13 UNL     1      20.856  12.310  -9.790  1.00  0.00     0.022 C 
HETATM   19  C14 UNL     1      21.500  11.467 -10.877  1.00  0.00     0.037 C 
HETATM   20  C15 UNL     1      20.579   9.030  -8.208  1.00  0.00     0.243 C 
HETATM   21  O2  UNL     1      19.545   8.487  -8.665  1.00  0.00    -0.271 OA
HETATM   22  C16 UNL     1      21.084   8.554  -6.861  1.00  0.00     0.181 C 
HETATM   23  N5  UNL     1      21.301   7.098  -6.902  1.00  0.00    -0.343 N 
HETATM   24  C24 UNL     1      20.275   6.103  -6.777  1.00  0.00     0.254 C 
HETATM   25  O3  UNL     1      20.491   4.954  -7.246  1.00  0.00    -0.268 OA
HETATM   26  C25 UNL     1      19.004   6.348  -6.064  1.00  0.00     0.058 A 
HETATM   27  C26 UNL     1      19.047   6.956  -4.794  1.00  0.00     0.019 A 
HETATM   28  C27 UNL     1      17.887   7.094  -4.029  1.00  0.00     0.001 A 
HETATM   29  C28 UNL     1      16.675   6.600  -4.507  1.00  0.00     0.002 A 
HETATM   30  C29 UNL     1      16.622   5.955  -5.745  1.00  0.00     0.030 A 
HETATM   31  C30 UNL     1      17.769   5.836  -6.544  1.00  0.00     0.050 A 
HETATM   32  N6  UNL     1      17.662   5.139  -7.797  1.00  0.00    -0.324 N 
HETATM   33  C31 UNL     1      17.874   5.798  -9.056  1.00  0.00     0.245 C 
HETATM   34  O4  UNL     1      19.047   5.909  -9.492  1.00  0.00    -0.271 OA
HETATM   35  C32 UNL     1      22.128   5.367 -10.024  1.00  0.00     0.030 A 
HETATM   36  C33 UNL     1      21.542   4.146 -10.359  1.00  0.00     0.002 A 
HETATM   37  C34 UNL     1      20.658   4.069 -11.431  1.00  0.00     0.001 A 
HETATM   38  C35 UNL     1      20.368   5.209 -12.178  1.00  0.00     0.019 A 
HETATM   39  O5  UNL     1      21.652   7.839 -13.601  1.00  0.00    -0.268 OA
HETATM   40  O6  UNL     1      17.326   6.490 -13.516  1.00  0.00    -0.271 OA
HETATM   41  H9  UNL     1      19.306   8.676 -13.886  1.00  0.00     0.163 HD
HETATM   42  H10 UNL     1      23.074   7.716  -9.452  1.00  0.00     0.169 HD
HETATM   43  H26 UNL     1      22.172   6.766  -7.369  1.00  0.00     0.163 HD
HETATM   44  H31 UNL     1      17.071   4.278  -7.812  1.00  0.00     0.169 HD
ENDROOT
BRANCH   7  45
HETATM   45  C36 UNL     1      17.458   9.363 -12.255  1.00  0.00     0.073 C 
BRANCH  45  46
HETATM   46  C37 UNL     1      16.797   9.866 -11.001  1.00  0.00    -0.056 A 
HETATM   47  C38 UNL     1      17.528  10.615 -10.063  1.00  0.00     0.007 A 
HETATM   48  C39 UNL     1      16.907  11.085  -8.900  1.00  0.00     0.001 A 
HETATM   49  C40 UNL     1      15.551  10.829  -8.674  1.00  0.00     0.000 A 
HETATM   50  C41 UNL     1      14.820  10.080  -9.604  1.00  0.00     0.001 A 
HETATM   51  C42 UNL     1      15.437   9.599 -10.764  1.00  0.00     0.007 A 
ENDBRANCH  45  46
ENDBRANCH   7  45
BRANCH  22  52
HETATM   52  C17 UNL     1      22.331   9.284  -6.284  1.00  0.00     0.073 C 
BRANCH  52  53
HETATM   53  C18 UNL     1      22.310   9.549  -4.793  1.00  0.00    -0.056 A 
HETATM   54  C19 UNL     1      21.899  10.791  -4.282  1.00  0.00     0.007 A 
HETATM   55  C20 UNL     1      21.877  11.014  -2.901  1.00  0.00     0.001 A 
HETATM   56  C21 UNL     1      22.253  10.001  -2.020  1.00  0.00     0.000 A 
HETATM   57  C22 UNL     1      22.650   8.759  -2.515  1.00  0.00     0.001 A 
HETATM   58  C23 UNL     1      22.666   8.529  -3.894  1.00  0.00     0.007 A 
ENDBRANCH  52  53
ENDBRANCH  22  52
TORSDOF 4
ENDMDL
MODEL 18
REMARK VINA RESULT:      -9.4      2.218      5.949
REMARK  4 active torsions:
REMARK  status: ('A' for Active; 'I' for Inactive)
REMARK    1  A    between atoms: C6_7  and  C36_47 
REMARK    2  A    between atoms: C16_22  and  C17_23 
REMARK    3  A    between atoms: C17_23  and  C18_24 
REMARK    4  A    between atoms: C36_47  and  C37_48 
ROOT
HETATM    1  C1  UNL     1      21.911   7.843  -6.134  1.00  0.00     0.179 C 
HETATM    2  N1  UNL     1      21.385   8.631  -5.014  1.00  0.00    -0.337 N 
HETATM    3  C2  UNL     1      22.178   8.423  -3.809  1.00  0.00     0.127 C 
HETATM    4  C3  UNL     1      23.316   7.494  -4.203  1.00  0.00     0.022 C 
HETATM    5  C4  UNL     1      23.354   7.554  -5.721  1.00  0.00     0.037 C 
HETATM    6  C5  UNL     1      20.439   9.729  -5.086  1.00  0.00     0.243 C 
HETATM    7  C6  UNL     1      19.708  10.120  -6.357  1.00  0.00     0.181 C 
HETATM    8  N2  UNL     1      18.342  10.568  -6.029  1.00  0.00    -0.343 N 
HETATM    9  C7  UNL     1      17.190   9.725  -5.898  1.00  0.00     0.254 C 
HETATM   10  C8  UNL     1      17.296   8.278  -5.684  1.00  0.00     0.058 A 
HETATM   11  C9  UNL     1      16.778   7.308  -6.590  1.00  0.00     0.050 A 
HETATM   12  N3  UNL     1      16.297   7.605  -7.924  1.00  0.00    -0.324 N 
HETATM   13  C10 UNL     1      16.201   8.894  -8.536  1.00  0.00     0.245 C 
HETATM   14  O1  UNL     1      15.165   9.587  -8.339  1.00  0.00    -0.271 OA
HETATM   15  C11 UNL     1      17.336   9.430  -9.377  1.00  0.00     0.179 C 
HETATM   16  N4  UNL     1      17.868   8.438 -10.313  1.00  0.00    -0.337 N 
HETATM   17  C12 UNL     1      18.141   9.050 -11.612  1.00  0.00     0.127 C 
HETATM   18  C13 UNL     1      17.870  10.537 -11.443  1.00  0.00     0.022 C 
HETATM   19  C14 UNL     1      16.945  10.630 -10.242  1.00  0.00     0.037 C 
HETATM   20  C15 UNL     1      18.692   7.360  -9.839  1.00  0.00     0.243 C 
HETATM   21  O2  UNL     1      19.549   7.604  -8.957  1.00  0.00    -0.271 OA
HETATM   22  C16 UNL     1      18.633   5.949 -10.389  1.00  0.00     0.181 C 
HETATM   23  N5  UNL     1      18.448   4.996  -9.282  1.00  0.00    -0.343 N 
HETATM   24  C24 UNL     1      19.485   4.526  -8.410  1.00  0.00     0.254 C 
HETATM   25  O3  UNL     1      19.163   4.080  -7.277  1.00  0.00    -0.268 OA
HETATM   26  C25 UNL     1      20.908   4.479  -8.810  1.00  0.00     0.058 A 
HETATM   27  C26 UNL     1      21.239   3.931 -10.064  1.00  0.00     0.019 A 
HETATM   28  C27 UNL     1      22.575   3.750 -10.434  1.00  0.00     0.001 A 
HETATM   29  C28 UNL     1      23.594   4.084  -9.545  1.00  0.00     0.002 A 
HETATM   30  C29 UNL     1      23.281   4.589  -8.280  1.00  0.00     0.030 A 
HETATM   31  C30 UNL     1      21.948   4.809  -7.902  1.00  0.00     0.050 A 
HETATM   32  N6  UNL     1      21.684   5.304  -6.578  1.00  0.00    -0.324 N 
HETATM   33  C31 UNL     1      21.083   6.589  -6.351  1.00  0.00     0.245 C 
HETATM   34  O4  UNL     1      19.831   6.685  -6.378  1.00  0.00    -0.271 OA
HETATM   35  C32 UNL     1      16.748   5.960  -6.182  1.00  0.00     0.030 A 
HETATM   36  C33 UNL     1      17.232   5.571  -4.933  1.00  0.00     0.002 A 
HETATM   37  C34 UNL     1      17.748   6.523  -4.059  1.00  0.00     0.001 A 
HETATM   38  C35 UNL     1      17.770   7.867  -4.426  1.00  0.00     0.019 A 
HETATM   39  O5  UNL     1      16.052  10.262  -5.807  1.00  0.00    -0.268 OA
HETATM   40  O6  UNL     1      20.228  10.416  -4.051  1.00  0.00    -0.271 OA
HETATM   41  H9  UNL     1      18.180  11.588  -5.859  1.00  0.00     0.163 HD
HETATM   42  H10 UNL     1      15.967   6.806  -8.509  1.00  0.00     0.169 HD
HETATM   43  H26 UNL     1      17.483   4.908  -8.895  1.00  0.00     0.163 HD
HETATM   44  H31 UNL     1      22.262   4.913  -5.801  1.00  0.00     0.169 HD
ENDROOT
BRANCH   7  45
HETATM   45  C36 UNL     1      20.421  11.298  -7.059  1.00  0.00     0.073 C 
BRANCH  45  46
HETATM   46  C37 UNL     1      21.015  10.939  -8.394  1.00  0.00    -0.056 A 
HETATM   47  C38 UNL     1      20.755  11.733  -9.524  1.00  0.00     0.007 A 
HETATM   48  C39 UNL     1      21.314  11.397 -10.763  1.00  0.00     0.001 A 
HETATM   49  C40 UNL     1      22.150  10.282 -10.878  1.00  0.00     0.000 A 
HETATM   50  C41 UNL     1      22.409   9.487  -9.756  1.00  0.00     0.001 A 
HETATM   51  C42 UNL     1      21.846   9.811  -8.517  1.00  0.00     0.007 A 
ENDBRANCH  45  46
ENDBRANCH   7  45
BRANCH  22  52
HETATM   52  C17 UNL     1      17.605   5.684 -11.526  1.00  0.00     0.073 C 
BRANCH  52  53
HETATM   53  C18 UNL     1      16.209   5.299 -11.079  1.00  0.00    -0.056 A 
HETATM   54  C19 UNL     1      15.212   6.270 -10.897  1.00  0.00     0.007 A 
HETATM   55  C20 UNL     1      13.926   5.895 -10.492  1.00  0.00     0.001 A 
HETATM   56  C21 UNL     1      13.622   4.551 -10.279  1.00  0.00     0.000 A 
HETATM   57  C22 UNL     1      14.601   3.577 -10.472  1.00  0.00     0.001 A 
HETATM   58  C23 UNL     1      15.885   3.946 -10.883  1.00  0.00     0.007 A 
ENDBRANCH  52  53
ENDBRANCH  22  52
TORSDOF 4
ENDMDL
MODEL 19
REMARK VINA RESULT:      -9.3      2.377      7.352
REMARK  4 active torsions:
REMARK  status: ('A' for Active; 'I' for Inactive)
REMARK    1  A    between atoms: C6_7  and  C36_47 
REMARK    2  A    between atoms: C16_22  and  C17_23 
REMARK    3  A    between atoms: C17_23  and  C18_24 
REMARK    4  A    between atoms: C36_47  and  C37_48 
ROOT
HETATM    1  C1  UNL     1      19.789   5.294  -6.404  1.00  0.00     0.179 C 
HETATM    2  N1  UNL     1      20.522   5.885  -5.279  1.00  0.00    -0.337 N 
HETATM    3  C2  UNL     1      20.395   5.063  -4.082  1.00  0.00     0.127 C 
HETATM    4  C3  UNL     1      19.582   3.843  -4.487  1.00  0.00     0.022 C 
HETATM    5  C4  UNL     1      19.645   3.826  -6.005  1.00  0.00     0.037 C 
HETATM    6  C5  UNL     1      21.521   6.935  -5.342  1.00  0.00     0.243 C 
HETATM    7  C6  UNL     1      21.837   7.714  -6.606  1.00  0.00     0.181 C 
HETATM    8  N2  UNL     1      22.147   9.114  -6.266  1.00  0.00    -0.343 N 
HETATM    9  C7  UNL     1      21.194  10.175  -6.124  1.00  0.00     0.254 C 
HETATM   10  C8  UNL     1      19.766   9.924  -5.912  1.00  0.00     0.058 A 
HETATM   11  C9  UNL     1      18.748  10.353  -6.813  1.00  0.00     0.050 A 
HETATM   12  N3  UNL     1      18.995  10.873  -8.142  1.00  0.00    -0.324 N 
HETATM   13  C10 UNL     1      20.267  11.101  -8.754  1.00  0.00     0.245 C 
HETATM   14  O1  UNL     1      20.854  12.199  -8.547  1.00  0.00    -0.271 OA
HETATM   15  C11 UNL     1      20.913  10.033  -9.605  1.00  0.00     0.179 C 
HETATM   16  N4  UNL     1      19.977   9.414 -10.545  1.00  0.00    -0.337 N 
HETATM   17  C12 UNL     1      20.612   9.215 -11.847  1.00  0.00     0.127 C 
HETATM   18  C13 UNL     1      22.065   9.631 -11.675  1.00  0.00     0.022 C 
HETATM   19  C14 UNL     1      22.067  10.549 -10.466  1.00  0.00     0.037 C 
HETATM   20  C15 UNL     1      18.986   8.483 -10.080  1.00  0.00     0.243 C 
HETATM   21  O2  UNL     1      19.315   7.646  -9.205  1.00  0.00    -0.271 OA
HETATM   22  C16 UNL     1      17.576   8.407 -10.629  1.00  0.00     0.181 C 
HETATM   23  N5  UNL     1      16.611   8.487  -9.520  1.00  0.00    -0.343 N 
HETATM   24  C24 UNL     1      16.246   7.400  -8.658  1.00  0.00     0.254 C 
HETATM   25  O3  UNL     1      15.772   7.666  -7.522  1.00  0.00    -0.268 OA
HETATM   26  C25 UNL     1      16.340   5.984  -9.072  1.00  0.00     0.058 A 
HETATM   27  C26 UNL     1      15.826   5.611 -10.329  1.00  0.00     0.019 A 
HETATM   28  C27 UNL     1      15.778   4.268 -10.711  1.00  0.00     0.001 A 
HETATM   29  C28 UNL     1      16.213   3.279  -9.831  1.00  0.00     0.002 A 
HETATM   30  C29 UNL     1      16.685   3.628  -8.563  1.00  0.00     0.030 A 
HETATM   31  C30 UNL     1      16.772   4.973  -8.173  1.00  0.00     0.050 A 
HETATM   32  N6  UNL     1      17.240   5.272  -6.846  1.00  0.00    -0.324 N 
HETATM   33  C31 UNL     1      18.459   5.995  -6.614  1.00  0.00     0.245 C 
HETATM   34  O4  UNL     1      18.431   7.251  -6.629  1.00  0.00    -0.271 OA
HETATM   35  C32 UNL     1      17.404  10.245  -6.405  1.00  0.00     0.030 A 
HETATM   36  C33 UNL     1      17.066   9.713  -5.160  1.00  0.00     0.002 A 
HETATM   37  C34 UNL     1      18.065   9.286  -4.291  1.00  0.00     0.001 A 
HETATM   38  C35 UNL     1      19.404   9.401  -4.658  1.00  0.00     0.019 A 
HETATM   39  O5  UNL     1      21.616  11.360  -6.022  1.00  0.00    -0.268 OA
HETATM   40  O6  UNL     1      22.185   7.204  -4.305  1.00  0.00    -0.271 OA
HETATM   41  H9  UNL     1      23.147   9.374  -6.094  1.00  0.00     0.163 HD
HETATM   42  H10 UNL     1      18.167  11.127  -8.724  1.00  0.00     0.169 HD
HETATM   43  H26 UNL     1      16.428   9.434  -9.124  1.00  0.00     0.163 HD
HETATM   44  H31 UNL     1      16.908   4.651  -6.075  1.00  0.00     0.169 HD
ENDROOT
BRANCH   7  45
HETATM   45  C36 UNL     1      23.079   7.127  -7.316  1.00  0.00     0.073 C 
BRANCH  45  46
HETATM   46  C37 UNL     1      22.749   6.133  -8.396  1.00  0.00    -0.056 A 
HETATM   47  C38 UNL     1      22.290   6.572  -9.649  1.00  0.00     0.007 A 
HETATM   48  C39 UNL     1      21.989   5.644 -10.653  1.00  0.00     0.001 A 
HETATM   49  C40 UNL     1      22.162   4.276 -10.420  1.00  0.00     0.000 A 
HETATM   50  C41 UNL     1      22.615   3.834  -9.172  1.00  0.00     0.001 A 
HETATM   51  C42 UNL     1      22.909   4.756  -8.161  1.00  0.00     0.007 A 
ENDBRANCH  45  46
ENDBRANCH   7  45
BRANCH  22  52
HETATM   52  C17 UNL     1      17.210   9.415 -11.757  1.00  0.00     0.073 C 
BRANCH  52  53
HETATM   53  C18 UNL     1      15.778   9.908 -11.762  1.00  0.00    -0.056 A 
HETATM   54  C19 UNL     1      14.732   9.097 -12.232  1.00  0.00     0.007 A 
HETATM   55  C20 UNL     1      13.414   9.566 -12.221  1.00  0.00     0.001 A 
HETATM   56  C21 UNL     1      13.127  10.840 -11.731  1.00  0.00     0.000 A 
HETATM   57  C22 UNL     1      14.155  11.648 -11.249  1.00  0.00     0.001 A 
HETATM   58  C23 UNL     1      15.473  11.181 -11.251  1.00  0.00     0.007 A 
ENDBRANCH  52  53
ENDBRANCH  22  52
TORSDOF 4
ENDMDL
MODEL 20
REMARK VINA RESULT:      -9.2      2.563      4.606
REMARK  4 active torsions:
REMARK  status: ('A' for Active; 'I' for Inactive)
REMARK    1  A    between atoms: C6_7  and  C36_47 
REMARK    2  A    between atoms: C16_22  and  C17_23 
REMARK    3  A    between atoms: C17_23  and  C18_24 
REMARK    4  A    between atoms: C36_47  and  C37_48 
ROOT
HETATM    1  C1  UNL     1      20.515  10.546  -7.904  1.00  0.00     0.179 C 
HETATM    2  N1  UNL     1      20.734  11.364  -9.101  1.00  0.00    -0.337 N 
HETATM    3  C2  UNL     1      21.048  12.742  -8.744  1.00  0.00     0.127 C 
HETATM    4  C3  UNL     1      21.091  12.789  -7.224  1.00  0.00     0.022 C 
HETATM    5  C4  UNL     1      21.215  11.336  -6.798  1.00  0.00     0.037 C 
HETATM    6  C5  UNL     1      20.960  10.891 -10.454  1.00  0.00     0.243 C 
HETATM    7  C6  UNL     1      20.828   9.435 -10.863  1.00  0.00     0.181 C 
HETATM    8  N2  UNL     1      20.272   9.347 -12.225  1.00  0.00    -0.343 N 
HETATM    9  C7  UNL     1      18.880   9.331 -12.566  1.00  0.00     0.254 C 
HETATM   10  C8  UNL     1      17.841   9.794 -11.641  1.00  0.00     0.058 A 
HETATM   11  C9  UNL     1      16.798   8.958 -11.145  1.00  0.00     0.050 A 
HETATM   12  N3  UNL     1      16.759   7.518 -11.295  1.00  0.00    -0.324 N 
HETATM   13  C10 UNL     1      17.699   6.701 -11.998  1.00  0.00     0.245 C 
HETATM   14  O1  UNL     1      17.549   6.528 -13.239  1.00  0.00    -0.271 OA
HETATM   15  C11 UNL     1      18.872   6.083 -11.273  1.00  0.00     0.179 C 
HETATM   16  N4  UNL     1      18.494   5.477  -9.995  1.00  0.00    -0.337 N 
HETATM   17  C12 UNL     1      19.183   4.200  -9.809  1.00  0.00     0.127 C 
HETATM   18  C13 UNL     1      20.132   4.057 -10.988  1.00  0.00     0.022 C 
HETATM   19  C14 UNL     1      19.562   4.968 -12.061  1.00  0.00     0.037 C 
HETATM   20  C15 UNL     1      18.191   6.302  -8.859  1.00  0.00     0.243 C 
HETATM   21  O2  UNL     1      18.901   7.314  -8.647  1.00  0.00    -0.271 OA
HETATM   22  C16 UNL     1      17.099   5.989  -7.857  1.00  0.00     0.181 C 
HETATM   23  N5  UNL     1      16.215   7.158  -7.711  1.00  0.00    -0.343 N 
HETATM   24  C24 UNL     1      16.498   8.318  -6.917  1.00  0.00     0.254 C 
HETATM   25  O3  UNL     1      15.911   9.397  -7.196  1.00  0.00    -0.268 OA
HETATM   26  C25 UNL     1      17.398   8.286  -5.744  1.00  0.00     0.058 A 
HETATM   27  C26 UNL     1      17.239   7.254  -4.799  1.00  0.00     0.019 A 
HETATM   28  C27 UNL     1      17.980   7.251  -3.614  1.00  0.00     0.001 A 
HETATM   29  C28 UNL     1      18.863   8.294  -3.344  1.00  0.00     0.002 A 
HETATM   30  C29 UNL     1      19.001   9.348  -4.250  1.00  0.00     0.030 A 
HETATM   31  C30 UNL     1      18.291   9.352  -5.461  1.00  0.00     0.050 A 
HETATM   32  N6  UNL     1      18.451  10.476  -6.344  1.00  0.00    -0.324 N 
HETATM   33  C31 UNL     1      19.031  10.341  -7.652  1.00  0.00     0.245 C 
HETATM   34  O4  UNL     1      18.295   9.998  -8.609  1.00  0.00    -0.271 OA
HETATM   35  C32 UNL     1      15.739   9.559 -10.438  1.00  0.00     0.030 A 
HETATM   36  C33 UNL     1      15.712  10.934 -10.203  1.00  0.00     0.002 A 
HETATM   37  C34 UNL     1      16.741  11.741 -10.680  1.00  0.00     0.001 A 
HETATM   38  C35 UNL     1      17.790  11.178 -11.403  1.00  0.00     0.019 A 
HETATM   39  O5  UNL     1      18.549   9.057 -13.751  1.00  0.00    -0.268 OA
HETATM   40  O6  UNL     1      21.310  11.720 -11.337  1.00  0.00    -0.271 OA
HETATM   41  H9  UNL     1      20.938   9.306 -13.032  1.00  0.00     0.163 HD
HETATM   42  H10 UNL     1      15.958   7.007 -10.864  1.00  0.00     0.169 HD
HETATM   43  H26 UNL     1      15.509   7.310  -8.464  1.00  0.00     0.163 HD
HETATM   44  H31 UNL     1      18.500  11.422  -5.904  1.00  0.00     0.169 HD
ENDROOT
BRANCH   7  45
HETATM   45  C36 UNL     1      22.211   8.744 -10.885  1.00  0.00     0.073 C 
BRANCH  45  46
HETATM   46  C37 UNL     1      22.496   7.916  -9.662  1.00  0.00    -0.056 A 
HETATM   47  C38 UNL     1      22.150   6.555  -9.629  1.00  0.00     0.007 A 
HETATM   48  C39 UNL     1      22.422   5.788  -8.490  1.00  0.00     0.001 A 
HETATM   49  C40 UNL     1      23.058   6.367  -7.387  1.00  0.00     0.000 A 
HETATM   50  C41 UNL     1      23.401   7.723  -7.414  1.00  0.00     0.001 A 
HETATM   51  C42 UNL     1      23.124   8.498  -8.546  1.00  0.00     0.007 A 
ENDBRANCH  45  46
ENDBRANCH   7  45
BRANCH  22  52
HETATM   52  C17 UNL     1      16.271   4.696  -8.106  1.00  0.00     0.073 C 
BRANCH  52  53
HETATM   53  C18 UNL     1      15.403   4.695  -9.348  1.00  0.00    -0.056 A 
HETATM   54  C19 UNL     1      15.626   3.781 -10.390  1.00  0.00     0.007 A 
HETATM   55  C20 UNL     1      14.808   3.790 -11.525  1.00  0.00     0.001 A 
HETATM   56  C21 UNL     1      13.756   4.699 -11.625  1.00  0.00     0.000 A 
HETATM   57  C22 UNL     1      13.516   5.602 -10.589  1.00  0.00     0.001 A 
HETATM   58  C23 UNL     1      14.326   5.592  -9.450  1.00  0.00     0.007 A 
ENDBRANCH  52  53
ENDBRANCH  22  52
TORSDOF 4
ENDMDL
