REMARK  0 active torsions:
REMARK  status: ('A' for Active; 'I' for Inactive)
ROOT
HETATM    1  C1  UNL     1       1.036   2.059   3.944  1.00  0.00     0.247 C 
HETATM    2  O1  UNL     1       1.348   2.259   5.148  1.00  0.00    -0.271 OA
HETATM    3  C2  UNL     1       0.523   3.133   3.010  1.00  0.00     0.116 C 
HETATM    4  N1  UNL     1       1.364   3.063   1.824  1.00  0.00    -0.332 N 
HETATM    5  C3  UNL     1       2.156   4.247   1.579  1.00  0.00     0.127 C 
HETATM    6  C4  UNL     1       1.864   5.164   2.771  1.00  0.00     0.023 C 
HETATM    7  C5  UNL     1       0.638   4.582   3.498  1.00  0.00     0.043 C 
HETATM    8  C6  UNL     1       1.505   1.764   1.230  1.00  0.00     0.250 C 
HETATM    9  O2  UNL     1       2.278   1.542   0.259  1.00  0.00    -0.270 OA
HETATM   10  C7  UNL     1      -0.899   2.665   2.589  1.00  0.00     0.050 C 
HETATM   11  C8  UNL     1      -0.817   1.231   1.903  1.00  0.00     0.040 C 
HETATM   12  C9  UNL     1       0.677   0.705   1.929  1.00  0.00     0.122 C 
HETATM   13  N2  UNL     1       1.112   0.755   3.343  1.00  0.00    -0.340 N 
HETATM   14  C10 UNL     1       0.834  -0.724   1.363  1.00  0.00     0.083 C 
HETATM   15  C11 UNL     1      -0.036  -0.939   0.168  1.00  0.00    -0.019 A 
HETATM   16  C12 UNL     1      -1.156  -0.188  -0.167  1.00  0.00     0.025 A 
HETATM   17  N3  UNL     1      -1.765  -0.713  -1.260  1.00  0.00    -0.358 N 
HETATM   18  C13 UNL     1      -0.000  -1.987  -0.727  1.00  0.00    -0.000 A 
HETATM   19  C14 UNL     1       0.877  -3.064  -0.848  1.00  0.00     0.028 A 
HETATM   20  C15 UNL     1      -1.058  -1.811  -1.583  1.00  0.00     0.046 A 
HETATM   21  C16 UNL     1      -1.307  -2.697  -2.630  1.00  0.00     0.068 A 
HETATM   22  C17 UNL     1      -0.444  -3.798  -2.777  1.00  0.00     0.082 A 
HETATM   23  O3  UNL     1      -0.646  -4.713  -3.815  1.00  0.00    -0.336 OA
HETATM   24  C18 UNL     1      -0.009  -5.999  -3.862  1.00  0.00     0.078 C 
HETATM   25  C19 UNL     1       0.286  -6.335  -5.328  1.00  0.00     0.051 C 
HETATM   26  C20 UNL     1      -0.969  -7.040  -3.271  1.00  0.00     0.051 C 
HETATM   27  C21 UNL     1       1.288  -6.019  -3.070  1.00  0.00     0.011 C 
HETATM   28  C22 UNL     1       1.552  -5.115  -2.122  1.00  0.00     0.013 C 
HETATM   29  C23 UNL     1       0.646  -3.981  -1.894  1.00  0.00    -0.002 A 
HETATM   30  C24 UNL     1      -1.536   1.124   0.493  1.00  0.00     0.002 C 
HETATM   31  C25 UNL     1      -1.168   2.253  -0.505  1.00  0.00     0.022 C 
HETATM   32  C26 UNL     1      -3.064   1.152   0.718  1.00  0.00     0.022 C 
HETATM   33  H10 UNL     1       1.445  -0.079   3.876  1.00  0.00     0.163 HD
HETATM   34  H13 UNL     1      -2.600  -0.341  -1.765  1.00  0.00     0.166 HD
ENDROOT
TORSDOF 0
