MODEL 1
REMARK VINA RESULT:     -10.8      0.000      0.000
REMARK  0 active torsions:
REMARK  status: ('A' for Active; 'I' for Inactive)
ROOT
HETATM    1  C1  UNL     1      16.508   6.104  -5.093  1.00  0.00     0.247 C 
HETATM    2  O1  UNL     1      16.253   6.287  -6.313  1.00  0.00    -0.271 OA
HETATM    3  C2  UNL     1      17.605   5.196  -4.582  1.00  0.00     0.116 C 
HETATM    4  N1  UNL     1      18.390   6.001  -3.658  1.00  0.00    -0.332 N 
HETATM    5  C3  UNL     1      19.760   6.220  -4.067  1.00  0.00     0.127 C 
HETATM    6  C4  UNL     1      19.866   5.552  -5.442  1.00  0.00     0.023 C 
HETATM    7  C5  UNL     1      18.610   4.679  -5.618  1.00  0.00     0.043 C 
HETATM    8  C6  UNL     1      17.651   6.687  -2.638  1.00  0.00     0.250 C 
HETATM    9  O2  UNL     1      18.191   7.493  -1.833  1.00  0.00    -0.270 OA
HETATM   10  C7  UNL     1      16.878   4.112  -3.736  1.00  0.00     0.050 C 
HETATM   11  C8  UNL     1      16.047   4.803  -2.567  1.00  0.00     0.040 C 
HETATM   12  C9  UNL     1      16.168   6.378  -2.678  1.00  0.00     0.122 C 
HETATM   13  N2  UNL     1      15.743   6.734  -4.051  1.00  0.00    -0.340 N 
HETATM   14  C10 UNL     1      15.316   7.133  -1.634  1.00  0.00     0.083 C 
HETATM   15  C11 UNL     1      15.346   6.451  -0.305  1.00  0.00    -0.019 A 
HETATM   16  C12 UNL     1      15.686   5.123  -0.081  1.00  0.00     0.025 A 
HETATM   17  N3  UNL     1      15.516   4.807   1.227  1.00  0.00    -0.358 N 
HETATM   18  C13 UNL     1      14.904   6.939   0.907  1.00  0.00    -0.000 A 
HETATM   19  C14 UNL     1      14.411   8.192   1.269  1.00  0.00     0.028 A 
HETATM   20  C15 UNL     1      15.031   5.917   1.813  1.00  0.00     0.046 A 
HETATM   21  C16 UNL     1      14.683   6.080   3.153  1.00  0.00     0.068 A 
HETATM   22  C17 UNL     1      14.176   7.330   3.551  1.00  0.00     0.082 A 
HETATM   23  O3  UNL     1      13.817   7.548   4.885  1.00  0.00    -0.336 OA
HETATM   24  C18 UNL     1      13.031   8.671   5.313  1.00  0.00     0.078 C 
HETATM   25  C19 UNL     1      13.520   9.099   6.701  1.00  0.00     0.051 C 
HETATM   26  C20 UNL     1      11.561   8.236   5.388  1.00  0.00     0.051 C 
HETATM   27  C21 UNL     1      13.149   9.844   4.354  1.00  0.00     0.011 C 
HETATM   28  C22 UNL     1      13.562   9.688   3.093  1.00  0.00     0.013 C 
HETATM   29  C23 UNL     1      14.043   8.384   2.617  1.00  0.00    -0.002 A 
HETATM   30  C24 UNL     1      16.317   4.214  -1.119  1.00  0.00     0.002 C 
HETATM   31  C25 UNL     1      17.817   4.081  -0.748  1.00  0.00     0.022 C 
HETATM   32  C26 UNL     1      15.667   2.816  -1.029  1.00  0.00     0.022 C 
HETATM   33  H10 UNL     1      14.953   7.382  -4.262  1.00  0.00     0.163 HD
HETATM   34  H13 UNL     1      15.730   3.900   1.697  1.00  0.00     0.166 HD
ENDROOT
TORSDOF 0
ENDMDL
MODEL 2
REMARK VINA RESULT:      -9.9      3.934     10.752
REMARK  0 active torsions:
REMARK  status: ('A' for Active; 'I' for Inactive)
ROOT
HETATM    1  C1  UNL     1      10.811  12.909   6.946  1.00  0.00     0.247 C 
HETATM    2  O1  UNL     1      10.381  14.090   7.032  1.00  0.00    -0.271 OA
HETATM    3  C2  UNL     1      10.809  11.919   8.090  1.00  0.00     0.116 C 
HETATM    4  N1  UNL     1      10.160  10.721   7.577  1.00  0.00    -0.332 N 
HETATM    5  C3  UNL     1       8.920  10.382   8.237  1.00  0.00     0.127 C 
HETATM    6  C4  UNL     1       8.688  11.518   9.239  1.00  0.00     0.023 C 
HETATM    7  C5  UNL     1      10.005  12.309   9.336  1.00  0.00     0.043 C 
HETATM    8  C6  UNL     1      10.673  10.211   6.338  1.00  0.00     0.250 C 
HETATM    9  O2  UNL     1      10.144   9.239   5.733  1.00  0.00    -0.270 OA
HETATM   10  C7  UNL     1      12.304  11.562   8.326  1.00  0.00     0.050 C 
HETATM   11  C8  UNL     1      12.937  10.970   6.991  1.00  0.00     0.040 C 
HETATM   12  C9  UNL     1      11.864  10.996   5.826  1.00  0.00     0.122 C 
HETATM   13  N2  UNL     1      11.385  12.393   5.733  1.00  0.00    -0.340 N 
HETATM   14  C10 UNL     1      12.422  10.521   4.466  1.00  0.00     0.083 C 
HETATM   15  C11 UNL     1      13.351   9.363   4.629  1.00  0.00    -0.019 A 
HETATM   16  C12 UNL     1      14.005   9.005   5.802  1.00  0.00     0.025 A 
HETATM   17  N3  UNL     1      14.843   7.963   5.574  1.00  0.00    -0.358 N 
HETATM   18  C13 UNL     1      13.855   8.537   3.647  1.00  0.00    -0.000 A 
HETATM   19  C14 UNL     1      13.591   8.467   2.280  1.00  0.00     0.028 A 
HETATM   20  C15 UNL     1      14.750   7.696   4.259  1.00  0.00     0.046 A 
HETATM   21  C16 UNL     1      15.437   6.715   3.546  1.00  0.00     0.068 A 
HETATM   22  C17 UNL     1      15.198   6.621   2.163  1.00  0.00     0.082 A 
HETATM   23  O3  UNL     1      15.856   5.650   1.402  1.00  0.00    -0.336 OA
HETATM   24  C18 UNL     1      15.898   5.672  -0.033  1.00  0.00     0.078 C 
HETATM   25  C19 UNL     1      15.869   4.225  -0.537  1.00  0.00     0.051 C 
HETATM   26  C20 UNL     1      17.202   6.352  -0.472  1.00  0.00     0.051 C 
HETATM   27  C21 UNL     1      14.723   6.434  -0.623  1.00  0.00     0.011 C 
HETATM   28  C22 UNL     1      14.019   7.315   0.095  1.00  0.00     0.013 C 
HETATM   29  C23 UNL     1      14.276   7.489   1.531  1.00  0.00    -0.002 A 
HETATM   30  C24 UNL     1      13.693   9.586   7.168  1.00  0.00     0.002 C 
HETATM   31  C25 UNL     1      12.891   8.509   7.943  1.00  0.00     0.022 C 
HETATM   32  C26 UNL     1      15.017   9.844   7.921  1.00  0.00     0.022 C 
HETATM   33  H10 UNL     1      11.454  12.972   4.866  1.00  0.00     0.163 HD
HETATM   34  H13 UNL     1      15.432   7.454   6.270  1.00  0.00     0.166 HD
ENDROOT
TORSDOF 0
ENDMDL
MODEL 3
REMARK VINA RESULT:      -9.5      7.508     11.222
REMARK  0 active torsions:
REMARK  status: ('A' for Active; 'I' for Inactive)
ROOT
HETATM    1  C1  UNL     1      20.426  10.107  -3.110  1.00  0.00     0.247 C 
HETATM    2  O1  UNL     1      20.353  10.336  -1.873  1.00  0.00    -0.271 OA
HETATM    3  C2  UNL     1      21.723   9.875  -3.854  1.00  0.00     0.116 C 
HETATM    4  N1  UNL     1      21.542   8.631  -4.589  1.00  0.00    -0.332 N 
HETATM    5  C3  UNL     1      22.426   7.561  -4.185  1.00  0.00     0.127 C 
HETATM    6  C4  UNL     1      23.222   8.137  -3.009  1.00  0.00     0.023 C 
HETATM    7  C5  UNL     1      22.978   9.657  -3.001  1.00  0.00     0.043 C 
HETATM    8  C6  UNL     1      20.358   8.545  -5.396  1.00  0.00     0.250 C 
HETATM    9  O2  UNL     1      20.029   7.492  -6.007  1.00  0.00    -0.270 OA
HETATM   10  C7  UNL     1      21.801  11.017  -4.906  1.00  0.00     0.050 C 
HETATM   11  C8  UNL     1      20.523  10.972  -5.853  1.00  0.00     0.040 C 
HETATM   12  C9  UNL     1      19.542   9.821  -5.381  1.00  0.00     0.122 C 
HETATM   13  N2  UNL     1      19.260  10.074  -3.950  1.00  0.00    -0.340 N 
HETATM   14  C10 UNL     1      18.228   9.764  -6.192  1.00  0.00     0.083 C 
HETATM   15  C11 UNL     1      18.468  10.023  -7.643  1.00  0.00    -0.019 A 
HETATM   16  C12 UNL     1      19.579  10.660  -8.182  1.00  0.00     0.025 A 
HETATM   17  N3  UNL     1      19.430  10.812  -9.522  1.00  0.00    -0.358 N 
HETATM   18  C13 UNL     1      17.593   9.832  -8.692  1.00  0.00    -0.000 A 
HETATM   19  C14 UNL     1      16.316   9.275  -8.735  1.00  0.00     0.028 A 
HETATM   20  C15 UNL     1      18.215  10.314  -9.816  1.00  0.00     0.046 A 
HETATM   21  C16 UNL     1      17.605  10.263 -11.068  1.00  0.00     0.068 A 
HETATM   22  C17 UNL     1      16.314   9.711 -11.147  1.00  0.00     0.082 A 
HETATM   23  O3  UNL     1      15.660   9.629 -12.380  1.00  0.00    -0.336 OA
HETATM   24  C18 UNL     1      14.255   9.361 -12.507  1.00  0.00     0.078 C 
HETATM   25  C19 UNL     1      14.040   8.522 -13.772  1.00  0.00     0.051 C 
HETATM   26  C20 UNL     1      13.513  10.698 -12.635  1.00  0.00     0.051 C 
HETATM   27  C21 UNL     1      13.711   8.607 -11.305  1.00  0.00     0.011 C 
HETATM   28  C22 UNL     1      14.346   8.597 -10.129  1.00  0.00     0.013 C 
HETATM   29  C23 UNL     1      15.671   9.215  -9.988  1.00  0.00    -0.002 A 
HETATM   30  C24 UNL     1      20.843  10.978  -7.407  1.00  0.00     0.002 C 
HETATM   31  C25 UNL     1      21.914   9.946  -7.848  1.00  0.00     0.022 C 
HETATM   32  C26 UNL     1      21.335  12.389  -7.801  1.00  0.00     0.022 C 
HETATM   33  H10 UNL     1      18.300  10.224  -3.567  1.00  0.00     0.163 HD
HETATM   34  H13 UNL     1      20.116  11.215 -10.198  1.00  0.00     0.166 HD
ENDROOT
TORSDOF 0
ENDMDL
MODEL 4
REMARK VINA RESULT:      -9.3     11.452     14.740
REMARK  0 active torsions:
REMARK  status: ('A' for Active; 'I' for Inactive)
ROOT
HETATM    1  C1  UNL     1      25.227  -0.387   3.204  1.00  0.00     0.247 C 
HETATM    2  O1  UNL     1      24.580  -0.742   4.225  1.00  0.00    -0.271 OA
HETATM    3  C2  UNL     1      26.466   0.481   3.244  1.00  0.00     0.116 C 
HETATM    4  N1  UNL     1      27.477  -0.236   2.480  1.00  0.00    -0.332 N 
HETATM    5  C3  UNL     1      28.627  -0.652   3.249  1.00  0.00     0.127 C 
HETATM    6  C4  UNL     1      28.306  -0.234   4.687  1.00  0.00     0.023 C 
HETATM    7  C5  UNL     1      27.097   0.717   4.621  1.00  0.00     0.043 C 
HETATM    8  C6  UNL     1      27.084  -0.667   1.168  1.00  0.00     0.250 C 
HETATM    9  O2  UNL     1      27.825  -1.379   0.438  1.00  0.00    -0.270 OA
HETATM   10  C7  UNL     1      26.099   1.756   2.433  1.00  0.00     0.050 C 
HETATM   11  C8  UNL     1      25.669   1.353   0.954  1.00  0.00     0.040 C 
HETATM   12  C9  UNL     1      25.683  -0.224   0.799  1.00  0.00     0.122 C 
HETATM   13  N2  UNL     1      24.820  -0.757   1.876  1.00  0.00    -0.340 N 
HETATM   14  C10 UNL     1      25.189  -0.708  -0.583  1.00  0.00     0.083 C 
HETATM   15  C11 UNL     1      25.679   0.177  -1.682  1.00  0.00    -0.019 A 
HETATM   16  C12 UNL     1      26.127   1.484  -1.533  1.00  0.00     0.025 A 
HETATM   17  N3  UNL     1      26.407   2.026  -2.745  1.00  0.00    -0.358 N 
HETATM   18  C13 UNL     1      25.639  -0.058  -3.039  1.00  0.00    -0.000 A 
HETATM   19  C14 UNL     1      25.241  -1.179  -3.767  1.00  0.00     0.028 A 
HETATM   20  C15 UNL     1      26.096   1.082  -3.651  1.00  0.00     0.046 A 
HETATM   21  C16 UNL     1      26.197   1.177  -5.038  1.00  0.00     0.068 A 
HETATM   22  C17 UNL     1      25.799   0.066  -5.803  1.00  0.00     0.082 A 
HETATM   23  O3  UNL     1      25.887   0.108  -7.198  1.00  0.00    -0.336 OA
HETATM   24  C18 UNL     1      25.239  -0.846  -8.054  1.00  0.00     0.078 C 
HETATM   25  C19 UNL     1      26.137  -1.085  -9.273  1.00  0.00     0.051 C 
HETATM   26  C20 UNL     1      23.893  -0.261  -8.503  1.00  0.00     0.051 C 
HETATM   27  C21 UNL     1      24.990  -2.167  -7.345  1.00  0.00     0.011 C 
HETATM   28  C22 UNL     1      24.974  -2.263  -6.012  1.00  0.00     0.013 C 
HETATM   29  C23 UNL     1      25.326  -1.109  -5.173  1.00  0.00    -0.002 A 
HETATM   30  C24 UNL     1      26.420   2.142  -0.198  1.00  0.00     0.002 C 
HETATM   31  C25 UNL     1      27.964   2.186  -0.048  1.00  0.00     0.022 C 
HETATM   32  C26 UNL     1      25.892   3.594  -0.224  1.00  0.00     0.022 C 
HETATM   33  H10 UNL     1      23.978  -1.350   1.703  1.00  0.00     0.163 HD
HETATM   34  H13 UNL     1      26.799   2.973  -2.945  1.00  0.00     0.166 HD
ENDROOT
TORSDOF 0
ENDMDL
MODEL 5
REMARK VINA RESULT:      -9.2      4.678      7.694
REMARK  0 active torsions:
REMARK  status: ('A' for Active; 'I' for Inactive)
ROOT
HETATM    1  C1  UNL     1      20.749  12.069  -7.793  1.00  0.00     0.247 C 
HETATM    2  O1  UNL     1      21.378  13.160  -7.791  1.00  0.00    -0.271 OA
HETATM    3  C2  UNL     1      20.321  11.338  -9.047  1.00  0.00     0.116 C 
HETATM    4  N1  UNL     1      20.810   9.975  -8.899  1.00  0.00    -0.332 N 
HETATM    5  C3  UNL     1      21.796   9.582  -9.880  1.00  0.00     0.127 C 
HETATM    6  C4  UNL     1      22.039  10.843 -10.715  1.00  0.00     0.023 C 
HETATM    7  C5  UNL     1      20.914  11.836 -10.371  1.00  0.00     0.043 C 
HETATM    8  C6  UNL     1      20.470   9.315  -7.671  1.00  0.00     0.250 C 
HETATM    9  O2  UNL     1      20.908   8.172  -7.371  1.00  0.00    -0.270 OA
HETATM   10  C7  UNL     1      18.769  11.276  -8.975  1.00  0.00     0.050 C 
HETATM   11  C8  UNL     1      18.317  10.537  -7.639  1.00  0.00     0.040 C 
HETATM   12  C9  UNL     1      19.590  10.161  -6.774  1.00  0.00     0.122 C 
HETATM   13  N2  UNL     1      20.346  11.419  -6.576  1.00  0.00    -0.340 N 
HETATM   14  C10 UNL     1      19.238   9.520  -5.413  1.00  0.00     0.083 C 
HETATM   15  C11 UNL     1      18.085   8.578  -5.532  1.00  0.00    -0.019 A 
HETATM   16  C12 UNL     1      17.147   8.569  -6.557  1.00  0.00     0.025 A 
HETATM   17  N3  UNL     1      16.183   7.648  -6.305  1.00  0.00    -0.358 N 
HETATM   18  C13 UNL     1      17.639   7.664  -4.601  1.00  0.00    -0.000 A 
HETATM   19  C14 UNL     1      18.158   7.283  -3.365  1.00  0.00     0.028 A 
HETATM   20  C15 UNL     1      16.489   7.113  -5.109  1.00  0.00     0.046 A 
HETATM   21  C16 UNL     1      15.782   6.131  -4.417  1.00  0.00     0.068 A 
HETATM   22  C17 UNL     1      16.275   5.727  -3.163  1.00  0.00     0.082 A 
HETATM   23  O3  UNL     1      15.606   4.741  -2.432  1.00  0.00    -0.336 OA
HETATM   24  C18 UNL     1      15.865   4.484  -1.043  1.00  0.00     0.078 C 
HETATM   25  C19 UNL     1      15.708   2.979  -0.796  1.00  0.00     0.051 C 
HETATM   26  C20 UNL     1      14.839   5.260  -0.205  1.00  0.00     0.051 C 
HETATM   27  C21 UNL     1      17.263   4.918  -0.636  1.00  0.00     0.011 C 
HETATM   28  C22 UNL     1      17.966   5.801  -1.351  1.00  0.00     0.013 C 
HETATM   29  C23 UNL     1      17.460   6.296  -2.639  1.00  0.00    -0.002 A 
HETATM   30  C24 UNL     1      17.282   9.354  -7.848  1.00  0.00     0.002 C 
HETATM   31  C25 UNL     1      17.678   8.339  -8.953  1.00  0.00     0.022 C 
HETATM   32  C26 UNL     1      15.910   9.961  -8.215  1.00  0.00     0.022 C 
HETATM   33  H10 UNL     1      20.571  11.817  -5.638  1.00  0.00     0.163 HD
HETATM   34  H13 UNL     1      15.375   7.387  -6.913  1.00  0.00     0.166 HD
ENDROOT
TORSDOF 0
ENDMDL
MODEL 6
REMARK VINA RESULT:      -9.2     12.167     13.786
REMARK  0 active torsions:
REMARK  status: ('A' for Active; 'I' for Inactive)
ROOT
HETATM    1  C1  UNL     1      23.157  -3.979  -6.057  1.00  0.00     0.247 C 
HETATM    2  O1  UNL     1      22.100  -4.189  -6.710  1.00  0.00    -0.271 OA
HETATM    3  C2  UNL     1      24.499  -4.591  -6.393  1.00  0.00     0.116 C 
HETATM    4  N1  UNL     1      25.436  -3.480  -6.462  1.00  0.00    -0.332 N 
HETATM    5  C3  UNL     1      26.021  -3.269  -7.767  1.00  0.00     0.127 C 
HETATM    6  C4  UNL     1      25.340  -4.301  -8.671  1.00  0.00     0.023 C 
HETATM    7  C5  UNL     1      24.613  -5.297  -7.749  1.00  0.00     0.043 C 
HETATM    8  C6  UNL     1      25.444  -2.593  -5.334  1.00  0.00     0.250 C 
HETATM    9  O2  UNL     1      26.135  -1.540  -5.303  1.00  0.00    -0.270 OA
HETATM   10  C7  UNL     1      24.886  -5.438  -5.148  1.00  0.00     0.050 C 
HETATM   11  C8  UNL     1      24.931  -4.511  -3.854  1.00  0.00     0.040 C 
HETATM   12  C9  UNL     1      24.500  -3.035  -4.233  1.00  0.00     0.122 C 
HETATM   13  N2  UNL     1      23.177  -3.142  -4.888  1.00  0.00    -0.340 N 
HETATM   14  C10 UNL     1      24.428  -2.085  -3.017  1.00  0.00     0.083 C 
HETATM   15  C11 UNL     1      25.545  -2.338  -2.058  1.00  0.00    -0.019 A 
HETATM   16  C12 UNL     1      26.296  -3.504  -1.974  1.00  0.00     0.025 A 
HETATM   17  N3  UNL     1      27.163  -3.432  -0.933  1.00  0.00    -0.358 N 
HETATM   18  C13 UNL     1      25.940  -1.555  -0.993  1.00  0.00    -0.000 A 
HETATM   19  C14 UNL     1      25.506  -0.302  -0.562  1.00  0.00     0.028 A 
HETATM   20  C15 UNL     1      26.928  -2.247  -0.340  1.00  0.00     0.046 A 
HETATM   21  C16 UNL     1      27.563  -1.727   0.787  1.00  0.00     0.068 A 
HETATM   22  C17 UNL     1      27.146  -0.467   1.252  1.00  0.00     0.082 A 
HETATM   23  O3  UNL     1      27.754   0.102   2.375  1.00  0.00    -0.336 OA
HETATM   24  C18 UNL     1      27.203   1.225   3.081  1.00  0.00     0.078 C 
HETATM   25  C19 UNL     1      28.363   2.087   3.591  1.00  0.00     0.051 C 
HETATM   26  C20 UNL     1      26.382   0.699   4.267  1.00  0.00     0.051 C 
HETATM   27  C21 UNL     1      26.302   2.067   2.193  1.00  0.00     0.011 C 
HETATM   28  C22 UNL     1      25.763   1.583   1.070  1.00  0.00     0.013 C 
HETATM   29  C23 UNL     1      26.125   0.246   0.580  1.00  0.00    -0.002 A 
HETATM   30  C24 UNL     1      26.266  -4.617  -3.004  1.00  0.00     0.002 C 
HETATM   31  C25 UNL     1      27.571  -4.497  -3.835  1.00  0.00     0.022 C 
HETATM   32  C26 UNL     1      26.277  -5.979  -2.275  1.00  0.00     0.022 C 
HETATM   33  H10 UNL     1      22.318  -2.660  -4.540  1.00  0.00     0.163 HD
HETATM   34  H13 UNL     1      27.881  -4.136  -0.651  1.00  0.00     0.166 HD
ENDROOT
TORSDOF 0
ENDMDL
MODEL 7
REMARK VINA RESULT:      -9.2      3.661      7.109
REMARK  0 active torsions:
REMARK  status: ('A' for Active; 'I' for Inactive)
ROOT
HETATM    1  C1  UNL     1      23.224   6.022  -8.210  1.00  0.00     0.247 C 
HETATM    2  O1  UNL     1      24.033   5.342  -8.896  1.00  0.00    -0.271 OA
HETATM    3  C2  UNL     1      23.189   7.535  -8.191  1.00  0.00     0.116 C 
HETATM    4  N1  UNL     1      21.808   7.904  -8.465  1.00  0.00    -0.332 N 
HETATM    5  C3  UNL     1      21.615   8.638  -9.695  1.00  0.00     0.127 C 
HETATM    6  C4  UNL     1      23.005   8.692 -10.337  1.00  0.00     0.023 C 
HETATM    7  C5  UNL     1      24.016   8.256  -9.262  1.00  0.00     0.043 C 
HETATM    8  C6  UNL     1      20.814   7.267  -7.647  1.00  0.00     0.250 C 
HETATM    9  O2  UNL     1      19.578   7.421  -7.839  1.00  0.00    -0.270 OA
HETATM   10  C7  UNL     1      23.484   7.933  -6.717  1.00  0.00     0.050 C 
HETATM   11  C8  UNL     1      22.405   7.274  -5.751  1.00  0.00     0.040 C 
HETATM   12  C9  UNL     1      21.414   6.365  -6.588  1.00  0.00     0.122 C 
HETATM   13  N2  UNL     1      22.259   5.409  -7.338  1.00  0.00    -0.340 N 
HETATM   14  C10 UNL     1      20.386   5.612  -5.715  1.00  0.00     0.083 C 
HETATM   15  C11 UNL     1      19.886   6.467  -4.597  1.00  0.00    -0.019 A 
HETATM   16  C12 UNL     1      20.519   7.595  -4.091  1.00  0.00     0.025 A 
HETATM   17  N3  UNL     1      19.841   8.075  -3.018  1.00  0.00    -0.358 N 
HETATM   18  C13 UNL     1      18.813   6.228  -3.764  1.00  0.00    -0.000 A 
HETATM   19  C14 UNL     1      17.852   5.218  -3.768  1.00  0.00     0.028 A 
HETATM   20  C15 UNL     1      18.813   7.229  -2.825  1.00  0.00     0.046 A 
HETATM   21  C16 UNL     1      17.841   7.296  -1.828  1.00  0.00     0.068 A 
HETATM   22  C17 UNL     1      16.859   6.289  -1.800  1.00  0.00     0.082 A 
HETATM   23  O3  UNL     1      15.858   6.314  -0.824  1.00  0.00    -0.336 OA
HETATM   24  C18 UNL     1      15.009   5.190  -0.543  1.00  0.00     0.078 C 
HETATM   25  C19 UNL     1      13.620   5.720  -0.168  1.00  0.00     0.051 C 
HETATM   26  C20 UNL     1      15.606   4.411   0.636  1.00  0.00     0.051 C 
HETATM   27  C21 UNL     1      14.886   4.259  -1.738  1.00  0.00     0.011 C 
HETATM   28  C22 UNL     1      15.782   4.259  -2.730  1.00  0.00     0.013 C 
HETATM   29  C23 UNL     1      16.860   5.256  -2.767  1.00  0.00    -0.002 A 
HETATM   30  C24 UNL     1      21.699   8.284  -4.752  1.00  0.00     0.002 C 
HETATM   31  C25 UNL     1      21.151   9.573  -5.419  1.00  0.00     0.022 C 
HETATM   32  C26 UNL     1      22.718   8.693  -3.666  1.00  0.00     0.022 C 
HETATM   33  H10 UNL     1      22.177   4.371  -7.250  1.00  0.00     0.163 HD
HETATM   34  H13 UNL     1      20.053   8.933  -2.461  1.00  0.00     0.166 HD
ENDROOT
TORSDOF 0
ENDMDL
MODEL 8
REMARK VINA RESULT:      -9.1      7.795     12.603
REMARK  0 active torsions:
REMARK  status: ('A' for Active; 'I' for Inactive)
ROOT
HETATM    1  C1  UNL     1      22.926   9.981  -4.620  1.00  0.00     0.247 C 
HETATM    2  O1  UNL     1      23.706  10.130  -3.642  1.00  0.00    -0.271 OA
HETATM    3  C2  UNL     1      22.428   8.640  -5.112  1.00  0.00     0.116 C 
HETATM    4  N1  UNL     1      20.978   8.755  -5.180  1.00  0.00    -0.332 N 
HETATM    5  C3  UNL     1      20.264   7.875  -4.283  1.00  0.00     0.127 C 
HETATM    6  C4  UNL     1      21.359   7.160  -3.486  1.00  0.00     0.023 C 
HETATM    7  C5  UNL     1      22.692   7.432  -4.205  1.00  0.00     0.043 C 
HETATM    8  C6  UNL     1      20.471   9.888  -5.901  1.00  0.00     0.250 C 
HETATM    9  O2  UNL     1      19.242  10.162  -5.956  1.00  0.00    -0.270 OA
HETATM   10  C7  UNL     1      22.945   8.522  -6.574  1.00  0.00     0.050 C 
HETATM   11  C8  UNL     1      22.404   9.743  -7.441  1.00  0.00     0.040 C 
HETATM   12  C9  UNL     1      21.568  10.728  -6.523  1.00  0.00     0.122 C 
HETATM   13  N2  UNL     1      22.452  11.096  -5.394  1.00  0.00    -0.340 N 
HETATM   14  C10 UNL     1      21.080  11.992  -7.265  1.00  0.00     0.083 C 
HETATM   15  C11 UNL     1      20.637  11.674  -8.656  1.00  0.00    -0.019 A 
HETATM   16  C12 UNL     1      20.993  10.546  -9.385  1.00  0.00     0.025 A 
HETATM   17  N3  UNL     1      20.492  10.620 -10.643  1.00  0.00    -0.358 N 
HETATM   18  C13 UNL     1      19.938  12.483  -9.527  1.00  0.00    -0.000 A 
HETATM   19  C14 UNL     1      19.370  13.745  -9.356  1.00  0.00     0.028 A 
HETATM   20  C15 UNL     1      19.862  11.807 -10.718  1.00  0.00     0.046 A 
HETATM   21  C16 UNL     1      19.201  12.343 -11.823  1.00  0.00     0.068 A 
HETATM   22  C17 UNL     1      18.622  13.617 -11.685  1.00  0.00     0.082 A 
HETATM   23  O3  UNL     1      17.942  14.197 -12.761  1.00  0.00    -0.336 OA
HETATM   24  C18 UNL     1      17.584  15.587 -12.805  1.00  0.00     0.078 C 
HETATM   25  C19 UNL     1      16.241  15.714 -13.533  1.00  0.00     0.051 C 
HETATM   26  C20 UNL     1      18.671  16.345 -13.579  1.00  0.00     0.051 C 
HETATM   27  C21 UNL     1      17.461  16.185 -11.414  1.00  0.00     0.011 C 
HETATM   28  C22 UNL     1      18.032  15.619 -10.347  1.00  0.00     0.013 C 
HETATM   29  C23 UNL     1      18.701  14.315 -10.458  1.00  0.00    -0.002 A 
HETATM   30  C24 UNL     1      21.694   9.334  -8.799  1.00  0.00     0.002 C 
HETATM   31  C25 UNL     1      20.623   8.221  -8.656  1.00  0.00     0.022 C 
HETATM   32  C26 UNL     1      22.774   8.847  -9.790  1.00  0.00     0.022 C 
HETATM   33  H10 UNL     1      22.722  12.079  -5.167  1.00  0.00     0.163 HD
HETATM   34  H13 UNL     1      20.560   9.904 -11.400  1.00  0.00     0.166 HD
ENDROOT
TORSDOF 0
ENDMDL
MODEL 9
REMARK VINA RESULT:      -9.1     11.468     15.353
REMARK  0 active torsions:
REMARK  status: ('A' for Active; 'I' for Inactive)
ROOT
HETATM    1  C1  UNL     1      25.243  -1.110   3.221  1.00  0.00     0.247 C 
HETATM    2  O1  UNL     1      24.752  -1.273   4.369  1.00  0.00    -0.271 OA
HETATM    3  C2  UNL     1      26.298  -0.078   2.888  1.00  0.00     0.116 C 
HETATM    4  N1  UNL     1      27.365  -0.804   2.214  1.00  0.00    -0.332 N 
HETATM    5  C3  UNL     1      28.627  -0.805   2.919  1.00  0.00     0.127 C 
HETATM    6  C4  UNL     1      28.341  -0.069   4.232  1.00  0.00     0.023 C 
HETATM    7  C5  UNL     1      26.975   0.622   4.072  1.00  0.00     0.043 C 
HETATM    8  C6  UNL     1      26.964  -1.633   1.114  1.00  0.00     0.250 C 
HETATM    9  O2  UNL     1      27.768  -2.388   0.504  1.00  0.00    -0.270 OA
HETATM   10  C7  UNL     1      25.641   0.852   1.829  1.00  0.00     0.050 C 
HETATM   11  C8  UNL     1      25.184  -0.001   0.566  1.00  0.00     0.040 C 
HETATM   12  C9  UNL     1      25.481  -1.537   0.816  1.00  0.00     0.122 C 
HETATM   13  N2  UNL     1      24.815  -1.888   2.090  1.00  0.00    -0.340 N 
HETATM   14  C10 UNL     1      24.985  -2.452  -0.326  1.00  0.00     0.083 C 
HETATM   15  C11 UNL     1      25.218  -1.832  -1.665  1.00  0.00    -0.019 A 
HETATM   16  C12 UNL     1      25.424  -0.480  -1.910  1.00  0.00     0.025 A 
HETATM   17  N3  UNL     1      25.507  -0.250  -3.244  1.00  0.00    -0.358 N 
HETATM   18  C13 UNL     1      25.122  -2.431  -2.903  1.00  0.00    -0.000 A 
HETATM   19  C14 UNL     1      24.887  -3.756  -3.268  1.00  0.00     0.028 A 
HETATM   20  C15 UNL     1      25.311  -1.443  -3.836  1.00  0.00     0.046 A 
HETATM   21  C16 UNL     1      25.290  -1.713  -5.203  1.00  0.00     0.068 A 
HETATM   22  C17 UNL     1      25.050  -3.040  -5.606  1.00  0.00     0.082 A 
HETATM   23  O3  UNL     1      25.025  -3.365  -6.965  1.00  0.00    -0.336 OA
HETATM   24  C18 UNL     1      24.505  -4.607  -7.465  1.00  0.00     0.078 C 
HETATM   25  C19 UNL     1      25.338  -5.021  -8.682  1.00  0.00     0.051 C 
HETATM   26  C20 UNL     1      23.044  -4.390  -7.882  1.00  0.00     0.051 C 
HETATM   27  C21 UNL     1      24.560  -5.707  -6.418  1.00  0.00     0.011 C 
HETATM   28  C22 UNL     1      24.662  -5.438  -5.113  1.00  0.00     0.013 C 
HETATM   29  C23 UNL     1      24.853  -4.059  -4.645  1.00  0.00    -0.002 A 
HETATM   30  C24 UNL     1      25.688   0.555  -0.832  1.00  0.00     0.002 C 
HETATM   31  C25 UNL     1      27.203   0.885  -0.886  1.00  0.00     0.022 C 
HETATM   32  C26 UNL     1      24.898   1.841  -1.162  1.00  0.00     0.022 C 
HETATM   33  H10 UNL     1      24.088  -2.633   2.177  1.00  0.00     0.163 HD
HETATM   34  H13 UNL     1      25.699   0.657  -3.725  1.00  0.00     0.166 HD
ENDROOT
TORSDOF 0
ENDMDL
MODEL 10
REMARK VINA RESULT:      -9.0      3.330      6.201
REMARK  0 active torsions:
REMARK  status: ('A' for Active; 'I' for Inactive)
ROOT
HETATM    1  C1  UNL     1      22.996   8.915  -5.338  1.00  0.00     0.247 C 
HETATM    2  O1  UNL     1      24.128   9.443  -5.175  1.00  0.00    -0.271 OA
HETATM    3  C2  UNL     1      22.381   8.625  -6.690  1.00  0.00     0.116 C 
HETATM    4  N1  UNL     1      21.988   7.224  -6.655  1.00  0.00    -0.332 N 
HETATM    5  C3  UNL     1      22.685   6.382  -7.602  1.00  0.00     0.127 C 
HETATM    6  C4  UNL     1      23.698   7.311  -8.278  1.00  0.00     0.023 C 
HETATM    7  C5  UNL     1      23.304   8.753  -7.908  1.00  0.00     0.043 C 
HETATM    8  C6  UNL     1      21.191   6.822  -5.531  1.00  0.00     0.250 C 
HETATM    9  O2  UNL     1      20.863   5.622  -5.326  1.00  0.00    -0.270 OA
HETATM   10  C7  UNL     1      21.073   9.464  -6.733  1.00  0.00     0.050 C 
HETATM   11  C8  UNL     1      20.127   9.057  -5.519  1.00  0.00     0.040 C 
HETATM   12  C9  UNL     1      20.848   7.977  -4.612  1.00  0.00     0.122 C 
HETATM   13  N2  UNL     1      22.154   8.558  -4.229  1.00  0.00    -0.340 N 
HETATM   14  C10 UNL     1      20.036   7.590  -3.356  1.00  0.00     0.083 C 
HETATM   15  C11 UNL     1      18.576   7.492  -3.655  1.00  0.00    -0.019 A 
HETATM   16  C12 UNL     1      17.928   8.073  -4.738  1.00  0.00     0.025 A 
HETATM   17  N3  UNL     1      16.590   7.864  -4.654  1.00  0.00    -0.358 N 
HETATM   18  C13 UNL     1      17.584   6.958  -2.861  1.00  0.00    -0.000 A 
HETATM   19  C14 UNL     1      17.643   6.289  -1.639  1.00  0.00     0.028 A 
HETATM   20  C15 UNL     1      16.394   7.195  -3.503  1.00  0.00     0.046 A 
HETATM   21  C16 UNL     1      15.179   6.768  -2.972  1.00  0.00     0.068 A 
HETATM   22  C17 UNL     1      15.202   6.094  -1.738  1.00  0.00     0.082 A 
HETATM   23  O3  UNL     1      14.011   5.639  -1.165  1.00  0.00    -0.336 OA
HETATM   24  C18 UNL     1      13.911   5.214   0.203  1.00  0.00     0.078 C 
HETATM   25  C19 UNL     1      12.899   4.064   0.276  1.00  0.00     0.051 C 
HETATM   26  C20 UNL     1      13.416   6.397   1.046  1.00  0.00     0.051 C 
HETATM   27  C21 UNL     1      15.248   4.743   0.751  1.00  0.00     0.011 C 
HETATM   28  C22 UNL     1      16.407   5.094   0.185  1.00  0.00     0.013 C 
HETATM   29  C23 UNL     1      16.428   5.851  -1.074  1.00  0.00    -0.002 A 
HETATM   30  C24 UNL     1      18.637   8.698  -5.925  1.00  0.00     0.002 C 
HETATM   31  C25 UNL     1      18.514   7.694  -7.102  1.00  0.00     0.022 C 
HETATM   32  C26 UNL     1      17.908  10.001  -6.320  1.00  0.00     0.022 C 
HETATM   33  H10 UNL     1      22.453   8.708  -3.239  1.00  0.00     0.163 HD
HETATM   34  H13 UNL     1      15.856   8.145  -5.341  1.00  0.00     0.166 HD
ENDROOT
TORSDOF 0
ENDMDL
MODEL 11
REMARK VINA RESULT:      -9.0      4.266      7.539
REMARK  0 active torsions:
REMARK  status: ('A' for Active; 'I' for Inactive)
ROOT
HETATM    1  C1  UNL     1      20.778   8.640 -10.136  1.00  0.00     0.247 C 
HETATM    2  O1  UNL     1      20.816   8.391 -11.370  1.00  0.00    -0.271 OA
HETATM    3  C2  UNL     1      21.565   9.747  -9.468  1.00  0.00     0.116 C 
HETATM    4  N1  UNL     1      20.597  10.513  -8.697  1.00  0.00    -0.332 N 
HETATM    5  C3  UNL     1      20.432  11.882  -9.132  1.00  0.00     0.127 C 
HETATM    6  C4  UNL     1      21.329  12.009 -10.367  1.00  0.00     0.023 C 
HETATM    7  C5  UNL     1      22.239  10.767 -10.393  1.00  0.00     0.043 C 
HETATM    8  C6  UNL     1      19.754   9.756  -7.816  1.00  0.00     0.250 C 
HETATM    9  O2  UNL     1      18.811  10.278  -7.163  1.00  0.00    -0.270 OA
HETATM   10  C7  UNL     1      22.495   9.030  -8.448  1.00  0.00     0.050 C 
HETATM   11  C8  UNL     1      21.623   8.180  -7.423  1.00  0.00     0.040 C 
HETATM   12  C9  UNL     1      20.089   8.278  -7.808  1.00  0.00     0.122 C 
HETATM   13  N2  UNL     1      19.988   7.858  -9.224  1.00  0.00    -0.340 N 
HETATM   14  C10 UNL     1      19.176   7.407  -6.917  1.00  0.00     0.083 C 
HETATM   15  C11 UNL     1      19.614   7.438  -5.489  1.00  0.00    -0.019 A 
HETATM   16  C12 UNL     1      20.877   7.796  -5.034  1.00  0.00     0.025 A 
HETATM   17  N3  UNL     1      20.960   7.622  -3.690  1.00  0.00    -0.358 N 
HETATM   18  C13 UNL     1      18.928   6.980  -4.384  1.00  0.00    -0.000 A 
HETATM   19  C14 UNL     1      17.639   6.465  -4.249  1.00  0.00     0.028 A 
HETATM   20  C15 UNL     1      19.772   7.116  -3.311  1.00  0.00     0.046 A 
HETATM   21  C16 UNL     1      19.382   6.755  -2.022  1.00  0.00     0.068 A 
HETATM   22  C17 UNL     1      18.090   6.227  -1.852  1.00  0.00     0.082 A 
HETATM   23  O3  UNL     1      17.647   5.855  -0.579  1.00  0.00    -0.336 OA
HETATM   24  C18 UNL     1      16.479   5.049  -0.359  1.00  0.00     0.078 C 
HETATM   25  C19 UNL     1      15.806   5.521   0.934  1.00  0.00     0.051 C 
HETATM   26  C20 UNL     1      16.918   3.585  -0.215  1.00  0.00     0.051 C 
HETATM   27  C21 UNL     1      15.491   5.156  -1.509  1.00  0.00     0.011 C 
HETATM   28  C22 UNL     1      15.859   5.581  -2.721  1.00  0.00     0.013 C 
HETATM   29  C23 UNL     1      17.219   6.085  -2.958  1.00  0.00    -0.002 A 
HETATM   30  C24 UNL     1      21.943   8.449  -5.893  1.00  0.00     0.002 C 
HETATM   31  C25 UNL     1      21.985   9.948  -5.496  1.00  0.00     0.022 C 
HETATM   32  C26 UNL     1      23.314   7.819  -5.560  1.00  0.00     0.022 C 
HETATM   33  H10 UNL     1      19.399   7.059  -9.550  1.00  0.00     0.163 HD
HETATM   34  H13 UNL     1      21.767   7.846  -3.067  1.00  0.00     0.166 HD
ENDROOT
TORSDOF 0
ENDMDL
MODEL 12
REMARK VINA RESULT:      -8.9      4.779      7.715
REMARK  0 active torsions:
REMARK  status: ('A' for Active; 'I' for Inactive)
ROOT
HETATM    1  C1  UNL     1      17.428  12.101  -9.207  1.00  0.00     0.247 C 
HETATM    2  O1  UNL     1      16.988  13.191  -9.661  1.00  0.00    -0.271 OA
HETATM    3  C2  UNL     1      18.607  11.352  -9.789  1.00  0.00     0.116 C 
HETATM    4  N1  UNL     1      19.506  11.097  -8.673  1.00  0.00    -0.332 N 
HETATM    5  C3  UNL     1      20.793  11.746  -8.779  1.00  0.00     0.127 C 
HETATM    6  C4  UNL     1      20.705  12.578 -10.063  1.00  0.00     0.023 C 
HETATM    7  C5  UNL     1      19.455  12.102 -10.824  1.00  0.00     0.043 C 
HETATM    8  C6  UNL     1      18.914  10.486  -7.517  1.00  0.00     0.250 C 
HETATM    9  O2  UNL     1      19.554  10.297  -6.447  1.00  0.00    -0.270 OA
HETATM   10  C7  UNL     1      18.037   9.977 -10.240  1.00  0.00     0.050 C 
HETATM   11  C8  UNL     1      17.378   9.230  -8.998  1.00  0.00     0.040 C 
HETATM   12  C9  UNL     1      17.449  10.154  -7.713  1.00  0.00     0.122 C 
HETATM   13  N2  UNL     1      16.816  11.438  -8.087  1.00  0.00    -0.340 N 
HETATM   14  C10 UNL     1      16.749   9.542  -6.479  1.00  0.00     0.083 C 
HETATM   15  C11 UNL     1      16.992   8.072  -6.383  1.00  0.00    -0.019 A 
HETATM   16  C12 UNL     1      17.388   7.244  -7.427  1.00  0.00     0.025 A 
HETATM   17  N3  UNL     1      17.424   5.952  -7.015  1.00  0.00    -0.358 N 
HETATM   18  C13 UNL     1      16.728   7.238  -5.317  1.00  0.00    -0.000 A 
HETATM   19  C14 UNL     1      16.270   7.510  -4.029  1.00  0.00     0.028 A 
HETATM   20  C15 UNL     1      17.011   5.962  -5.735  1.00  0.00     0.046 A 
HETATM   21  C16 UNL     1      16.864   4.866  -4.887  1.00  0.00     0.068 A 
HETATM   22  C17 UNL     1      16.398   5.104  -3.581  1.00  0.00     0.082 A 
HETATM   23  O3  UNL     1      16.240   4.039  -2.689  1.00  0.00    -0.336 OA
HETATM   24  C18 UNL     1      15.504   4.148  -1.461  1.00  0.00     0.078 C 
HETATM   25  C19 UNL     1      16.188   3.263  -0.412  1.00  0.00     0.051 C 
HETATM   26  C20 UNL     1      14.072   3.655  -1.705  1.00  0.00     0.051 C 
HETATM   27  C21 UNL     1      15.453   5.580  -0.955  1.00  0.00     0.011 C 
HETATM   28  C22 UNL     1      15.675   6.623  -1.761  1.00  0.00     0.013 C 
HETATM   29  C23 UNL     1      16.105   6.419  -3.150  1.00  0.00    -0.002 A 
HETATM   30  C24 UNL     1      17.875   7.740  -8.776  1.00  0.00     0.002 C 
HETATM   31  C25 UNL     1      19.416   7.566  -8.790  1.00  0.00     0.022 C 
HETATM   32  C26 UNL     1      17.274   6.852  -9.887  1.00  0.00     0.022 C 
HETATM   33  H10 UNL     1      15.989  11.842  -7.592  1.00  0.00     0.163 HD
HETATM   34  H13 UNL     1      17.724   5.116  -7.564  1.00  0.00     0.166 HD
ENDROOT
TORSDOF 0
ENDMDL
MODEL 13
REMARK VINA RESULT:      -8.8     12.172     14.521
REMARK  0 active torsions:
REMARK  status: ('A' for Active; 'I' for Inactive)
ROOT
HETATM    1  C1  UNL     1      23.233   1.137  -7.211  1.00  0.00     0.247 C 
HETATM    2  O1  UNL     1      22.297   1.915  -7.534  1.00  0.00    -0.271 OA
HETATM    3  C2  UNL     1      24.509   0.968  -8.006  1.00  0.00     0.116 C 
HETATM    4  N1  UNL     1      25.597   1.155  -7.057  1.00  0.00    -0.332 N 
HETATM    5  C3  UNL     1      26.438   2.299  -7.328  1.00  0.00     0.127 C 
HETATM    6  C4  UNL     1      25.791   2.981  -8.537  1.00  0.00     0.023 C 
HETATM    7  C5  UNL     1      24.767   1.990  -9.119  1.00  0.00     0.043 C 
HETATM    8  C6  UNL     1      25.525   0.371  -5.857  1.00  0.00     0.250 C 
HETATM    9  O2  UNL     1      26.347   0.504  -4.910  1.00  0.00    -0.270 OA
HETATM   10  C7  UNL     1      24.529  -0.527  -8.434  1.00  0.00     0.050 C 
HETATM   11  C8  UNL     1      24.470  -1.461  -7.146  1.00  0.00     0.040 C 
HETATM   12  C9  UNL     1      24.340  -0.572  -5.841  1.00  0.00     0.122 C 
HETATM   13  N2  UNL     1      23.160   0.298  -6.046  1.00  0.00    -0.340 N 
HETATM   14  C10 UNL     1      24.184  -1.402  -4.547  1.00  0.00     0.083 C 
HETATM   15  C11 UNL     1      25.054  -2.616  -4.566  1.00  0.00    -0.019 A 
HETATM   16  C12 UNL     1      25.596  -3.209  -5.700  1.00  0.00     0.025 A 
HETATM   17  N3  UNL     1      26.256  -4.346  -5.367  1.00  0.00    -0.358 N 
HETATM   18  C13 UNL     1      25.355  -3.458  -3.517  1.00  0.00    -0.000 A 
HETATM   19  C14 UNL     1      25.040  -3.387  -2.161  1.00  0.00     0.028 A 
HETATM   20  C15 UNL     1      26.093  -4.491  -4.039  1.00  0.00     0.046 A 
HETATM   21  C16 UNL     1      26.577  -5.523  -3.237  1.00  0.00     0.068 A 
HETATM   22  C17 UNL     1      26.271  -5.485  -1.864  1.00  0.00     0.082 A 
HETATM   23  O3  UNL     1      26.738  -6.492  -1.014  1.00  0.00    -0.336 OA
HETATM   24  C18 UNL     1      26.238  -6.690   0.317  1.00  0.00     0.078 C 
HETATM   25  C19 UNL     1      27.397  -7.164   1.200  1.00  0.00     0.051 C 
HETATM   26  C20 UNL     1      25.143  -7.764   0.272  1.00  0.00     0.051 C 
HETATM   27  C21 UNL     1      25.652  -5.413   0.898  1.00  0.00     0.011 C 
HETATM   28  C22 UNL     1      25.264  -4.396   0.123  1.00  0.00     0.013 C 
HETATM   29  C23 UNL     1      25.510  -4.421  -1.325  1.00  0.00    -0.002 A 
HETATM   30  C24 UNL     1      25.594  -2.579  -7.080  1.00  0.00     0.002 C 
HETATM   31  C25 UNL     1      27.033  -2.062  -7.342  1.00  0.00     0.022 C 
HETATM   32  C26 UNL     1      25.268  -3.664  -8.130  1.00  0.00     0.022 C 
HETATM   33  H10 UNL     1      22.332   0.310  -5.409  1.00  0.00     0.163 HD
HETATM   34  H13 UNL     1      26.797  -4.978  -5.998  1.00  0.00     0.166 HD
ENDROOT
TORSDOF 0
ENDMDL
MODEL 14
REMARK VINA RESULT:      -8.8      3.937     10.740
REMARK  0 active torsions:
REMARK  status: ('A' for Active; 'I' for Inactive)
ROOT
HETATM    1  C1  UNL     1      14.852   9.788  10.134  1.00  0.00     0.247 C 
HETATM    2  O1  UNL     1      14.914   9.384  11.325  1.00  0.00    -0.271 OA
HETATM    3  C2  UNL     1      14.662  11.236   9.738  1.00  0.00     0.116 C 
HETATM    4  N1  UNL     1      15.729  11.532   8.792  1.00  0.00    -0.332 N 
HETATM    5  C3  UNL     1      16.669  12.533   9.242  1.00  0.00     0.127 C 
HETATM    6  C4  UNL     1      16.219  12.879  10.665  1.00  0.00     0.023 C 
HETATM    7  C5  UNL     1      14.813  12.280  10.851  1.00  0.00     0.043 C 
HETATM    8  C6  UNL     1      15.865  10.619   7.693  1.00  0.00     0.250 C 
HETATM    9  O2  UNL     1      16.803  10.700   6.855  1.00  0.00    -0.270 OA
HETATM   10  C7  UNL     1      13.326  11.272   8.944  1.00  0.00     0.050 C 
HETATM   11  C8  UNL     1      13.411  10.291   7.693  1.00  0.00     0.040 C 
HETATM   12  C9  UNL     1      14.804   9.537   7.693  1.00  0.00     0.122 C 
HETATM   13  N2  UNL     1      14.925   8.886   9.017  1.00  0.00    -0.340 N 
HETATM   14  C10 UNL     1      14.936   8.494   6.561  1.00  0.00     0.083 C 
HETATM   15  C11 UNL     1      14.328   8.986   5.289  1.00  0.00    -0.019 A 
HETATM   16  C12 UNL     1      13.388  10.002   5.178  1.00  0.00     0.025 A 
HETATM   17  N3  UNL     1      12.980  10.128   3.889  1.00  0.00    -0.358 N 
HETATM   18  C13 UNL     1      14.452   8.444   4.027  1.00  0.00    -0.000 A 
HETATM   19  C14 UNL     1      15.223   7.383   3.553  1.00  0.00     0.028 A 
HETATM   20  C15 UNL     1      13.628   9.168   3.204  1.00  0.00     0.046 A 
HETATM   21  C16 UNL     1      13.524   8.889   1.842  1.00  0.00     0.068 A 
HETATM   22  C17 UNL     1      14.284   7.821   1.332  1.00  0.00     0.082 A 
HETATM   23  O3  UNL     1      14.221   7.503  -0.028  1.00  0.00    -0.336 OA
HETATM   24  C18 UNL     1      14.722   6.271  -0.570  1.00  0.00     0.078 C 
HETATM   25  C19 UNL     1      15.292   6.556  -1.963  1.00  0.00     0.051 C 
HETATM   26  C20 UNL     1      13.558   5.276  -0.675  1.00  0.00     0.051 C 
HETATM   27  C21 UNL     1      15.808   5.667   0.305  1.00  0.00     0.011 C 
HETATM   28  C22 UNL     1      15.950   6.002   1.591  1.00  0.00     0.013 C 
HETATM   29  C23 UNL     1      15.134   7.072   2.180  1.00  0.00    -0.002 A 
HETATM   30  C24 UNL     1      13.007  10.943   6.305  1.00  0.00     0.002 C 
HETATM   31  C25 UNL     1      13.692  12.303   6.008  1.00  0.00     0.022 C 
HETATM   32  C26 UNL     1      11.477  11.156   6.290  1.00  0.00     0.022 C 
HETATM   33  H10 UNL     1      15.050   7.857   9.147  1.00  0.00     0.163 HD
HETATM   34  H13 UNL     1      12.316  10.831   3.497  1.00  0.00     0.166 HD
ENDROOT
TORSDOF 0
ENDMDL
MODEL 15
REMARK VINA RESULT:      -8.7     12.865     16.299
REMARK  0 active torsions:
REMARK  status: ('A' for Active; 'I' for Inactive)
ROOT
HETATM    1  C1  UNL     1      27.767  -1.445   2.143  1.00  0.00     0.247 C 
HETATM    2  O1  UNL     1      28.567  -0.753   2.826  1.00  0.00    -0.271 OA
HETATM    3  C2  UNL     1      26.772  -2.421   2.731  1.00  0.00     0.116 C 
HETATM    4  N1  UNL     1      25.482  -2.068   2.157  1.00  0.00    -0.332 N 
HETATM    5  C3  UNL     1      24.503  -1.612   3.118  1.00  0.00     0.127 C 
HETATM    6  C4  UNL     1      25.250  -1.590   4.455  1.00  0.00     0.023 C 
HETATM    7  C5  UNL     1      26.565  -2.363   4.249  1.00  0.00     0.043 C 
HETATM    8  C6  UNL     1      25.441  -1.953   0.727  1.00  0.00     0.250 C 
HETATM    9  O2  UNL     1      24.415  -1.560   0.107  1.00  0.00    -0.270 OA
HETATM   10  C7  UNL     1      27.165  -3.808   2.148  1.00  0.00     0.050 C 
HETATM   11  C8  UNL     1      27.124  -3.760   0.558  1.00  0.00     0.040 C 
HETATM   12  C9  UNL     1      26.763  -2.296   0.072  1.00  0.00     0.122 C 
HETATM   13  N2  UNL     1      27.748  -1.392   0.706  1.00  0.00    -0.340 N 
HETATM   14  C10 UNL     1      26.789  -2.136  -1.465  1.00  0.00     0.083 C 
HETATM   15  C11 UNL     1      26.222  -3.336  -2.151  1.00  0.00    -0.019 A 
HETATM   16  C12 UNL     1      26.091  -4.603  -1.596  1.00  0.00     0.025 A 
HETATM   17  N3  UNL     1      25.628  -5.478  -2.524  1.00  0.00    -0.358 N 
HETATM   18  C13 UNL     1      25.874  -3.465  -3.478  1.00  0.00    -0.000 A 
HETATM   19  C14 UNL     1      25.849  -2.536  -4.518  1.00  0.00     0.028 A 
HETATM   20  C15 UNL     1      25.510  -4.775  -3.665  1.00  0.00     0.046 A 
HETATM   21  C16 UNL     1      25.084  -5.246  -4.906  1.00  0.00     0.068 A 
HETATM   22  C17 UNL     1      25.053  -4.336  -5.978  1.00  0.00     0.082 A 
HETATM   23  O3  UNL     1      24.627  -4.757  -7.242  1.00  0.00    -0.336 OA
HETATM   24  C18 UNL     1      24.841  -3.990  -8.436  1.00  0.00     0.078 C 
HETATM   25  C19 UNL     1      23.637  -4.198  -9.362  1.00  0.00     0.051 C 
HETATM   26  C20 UNL     1      26.118  -4.497  -9.119  1.00  0.00     0.051 C 
HETATM   27  C21 UNL     1      24.996  -2.507  -8.139  1.00  0.00     0.011 C 
HETATM   28  C22 UNL     1      25.327  -2.061  -6.923  1.00  0.00     0.013 C 
HETATM   29  C23 UNL     1      25.429  -2.986  -5.787  1.00  0.00    -0.002 A 
HETATM   30  C24 UNL     1      26.276  -4.916  -0.123  1.00  0.00     0.002 C 
HETATM   31  C25 UNL     1      24.859  -5.114   0.477  1.00  0.00     0.022 C 
HETATM   32  C26 UNL     1      27.054  -6.243   0.018  1.00  0.00     0.022 C 
HETATM   33  H10 UNL     1      28.386  -0.763   0.169  1.00  0.00     0.163 HD
HETATM   34  H13 UNL     1      25.391  -6.486  -2.387  1.00  0.00     0.166 HD
ENDROOT
TORSDOF 0
ENDMDL
MODEL 16
REMARK VINA RESULT:      -8.7      3.868      9.169
REMARK  0 active torsions:
REMARK  status: ('A' for Active; 'I' for Inactive)
ROOT
HETATM    1  C1  UNL     1      15.217   6.032  -1.095  1.00  0.00     0.247 C 
HETATM    2  O1  UNL     1      14.290   6.155  -0.251  1.00  0.00    -0.271 OA
HETATM    3  C2  UNL     1      16.121   4.823  -1.193  1.00  0.00     0.116 C 
HETATM    4  N1  UNL     1      16.070   4.401  -2.585  1.00  0.00    -0.332 N 
HETATM    5  C3  UNL     1      15.503   3.088  -2.793  1.00  0.00     0.127 C 
HETATM    6  C4  UNL     1      15.063   2.628  -1.399  1.00  0.00     0.023 C 
HETATM    7  C5  UNL     1      15.709   3.588  -0.383  1.00  0.00     0.043 C 
HETATM    8  C6  UNL     1      16.321   5.423  -3.561  1.00  0.00     0.250 C 
HETATM    9  O2  UNL     1      16.214   5.218  -4.800  1.00  0.00    -0.270 OA
HETATM   10  C7  UNL     1      17.556   5.363  -0.932  1.00  0.00     0.050 C 
HETATM   11  C8  UNL     1      17.912   6.494  -1.995  1.00  0.00     0.040 C 
HETATM   12  C9  UNL     1      16.666   6.760  -2.937  1.00  0.00     0.122 C 
HETATM   13  N2  UNL     1      15.526   7.067  -2.044  1.00  0.00    -0.340 N 
HETATM   14  C10 UNL     1      16.893   7.910  -3.943  1.00  0.00     0.083 C 
HETATM   15  C11 UNL     1      18.282   7.892  -4.492  1.00  0.00    -0.019 A 
HETATM   16  C12 UNL     1      19.376   7.262  -3.912  1.00  0.00     0.025 A 
HETATM   17  N3  UNL     1      20.502   7.525  -4.623  1.00  0.00    -0.358 N 
HETATM   18  C13 UNL     1      18.777   8.604  -5.564  1.00  0.00    -0.000 A 
HETATM   19  C14 UNL     1      18.146   9.442  -6.482  1.00  0.00     0.028 A 
HETATM   20  C15 UNL     1      20.125   8.350  -5.617  1.00  0.00     0.046 A 
HETATM   21  C16 UNL     1      20.936   8.909  -6.603  1.00  0.00     0.068 A 
HETATM   22  C17 UNL     1      20.332   9.764  -7.543  1.00  0.00     0.082 A 
HETATM   23  O3  UNL     1      21.100  10.346  -8.556  1.00  0.00    -0.336 OA
HETATM   24  C18 UNL     1      20.636  11.441  -9.361  1.00  0.00     0.078 C 
HETATM   25  C19 UNL     1      21.204  11.271 -10.775  1.00  0.00     0.051 C 
HETATM   26  C20 UNL     1      21.150  12.749  -8.746  1.00  0.00     0.051 C 
HETATM   27  C21 UNL     1      19.119  11.491  -9.431  1.00  0.00     0.011 C 
HETATM   28  C22 UNL     1      18.349  10.883  -8.524  1.00  0.00     0.013 C 
HETATM   29  C23 UNL     1      18.943  10.028  -7.487  1.00  0.00    -0.002 A 
HETATM   30  C24 UNL     1      19.289   6.286  -2.755  1.00  0.00     0.002 C 
HETATM   31  C25 UNL     1      19.490   4.867  -3.347  1.00  0.00     0.022 C 
HETATM   32  C26 UNL     1      20.442   6.569  -1.767  1.00  0.00     0.022 C 
HETATM   33  H10 UNL     1      14.984   7.959  -2.084  1.00  0.00     0.163 HD
HETATM   34  H13 UNL     1      21.464   7.157  -4.454  1.00  0.00     0.166 HD
ENDROOT
TORSDOF 0
ENDMDL
MODEL 17
REMARK VINA RESULT:      -8.6      7.289     10.857
REMARK  0 active torsions:
REMARK  status: ('A' for Active; 'I' for Inactive)
ROOT
HETATM    1  C1  UNL     1      20.168  10.044  -3.285  1.00  0.00     0.247 C 
HETATM    2  O1  UNL     1      20.058  10.500  -2.116  1.00  0.00    -0.271 OA
HETATM    3  C2  UNL     1      21.474   9.963  -4.045  1.00  0.00     0.116 C 
HETATM    4  N1  UNL     1      21.580   8.586  -4.507  1.00  0.00    -0.332 N 
HETATM    5  C3  UNL     1      22.695   7.851  -3.954  1.00  0.00     0.127 C 
HETATM    6  C4  UNL     1      23.347   8.822  -2.964  1.00  0.00     0.023 C 
HETATM    7  C5  UNL     1      22.755  10.215  -3.241  1.00  0.00     0.043 C 
HETATM    8  C6  UNL     1      20.440   8.070  -5.210  1.00  0.00     0.250 C 
HETATM    9  O2  UNL     1      20.358   6.868  -5.581  1.00  0.00    -0.270 OA
HETATM   10  C7  UNL     1      21.272  10.852  -5.305  1.00  0.00     0.050 C 
HETATM   11  C8  UNL     1      20.028  10.325  -6.147  1.00  0.00     0.040 C 
HETATM   12  C9  UNL     1      19.349   9.104  -5.399  1.00  0.00     0.122 C 
HETATM   13  N2  UNL     1      19.032   9.576  -4.032  1.00  0.00    -0.340 N 
HETATM   14  C10 UNL     1      18.075   8.586  -6.103  1.00  0.00     0.083 C 
HETATM   15  C11 UNL     1      18.230   8.588  -7.589  1.00  0.00    -0.019 A 
HETATM   16  C12 UNL     1      19.155   9.334  -8.308  1.00  0.00     0.025 A 
HETATM   17  N3  UNL     1      18.959   9.170  -9.640  1.00  0.00    -0.358 N 
HETATM   18  C13 UNL     1      17.412   7.992  -8.525  1.00  0.00    -0.000 A 
HETATM   19  C14 UNL     1      16.300   7.164  -8.382  1.00  0.00     0.028 A 
HETATM   20  C15 UNL     1      17.891   8.361  -9.758  1.00  0.00     0.046 A 
HETATM   21  C16 UNL     1      17.295   7.916 -10.937  1.00  0.00     0.068 A 
HETATM   22  C17 UNL     1      16.167   7.082 -10.828  1.00  0.00     0.082 A 
HETATM   23  O3  UNL     1      15.536   6.603 -11.980  1.00  0.00    -0.336 OA
HETATM   24  C18 UNL     1      14.232   6.003 -11.968  1.00  0.00     0.078 C 
HETATM   25  C19 UNL     1      14.203   4.896 -13.027  1.00  0.00     0.051 C 
HETATM   26  C20 UNL     1      13.196   7.082 -12.312  1.00  0.00     0.051 C 
HETATM   27  C21 UNL     1      13.892   5.410 -10.610  1.00  0.00     0.011 C 
HETATM   28  C22 UNL     1      14.526   5.786  -9.496  1.00  0.00     0.013 C 
HETATM   29  C23 UNL     1      15.672   6.703  -9.558  1.00  0.00    -0.002 A 
HETATM   30  C24 UNL     1      20.319  10.083  -7.687  1.00  0.00     0.002 C 
HETATM   31  C25 UNL     1      21.596   9.252  -7.978  1.00  0.00     0.022 C 
HETATM   32  C26 UNL     1      20.464  11.456  -8.380  1.00  0.00     0.022 C 
HETATM   33  H10 UNL     1      18.069   9.580  -3.630  1.00  0.00     0.163 HD
HETATM   34  H13 UNL     1      19.524   9.570 -10.422  1.00  0.00     0.166 HD
ENDROOT
TORSDOF 0
ENDMDL
MODEL 18
REMARK VINA RESULT:      -8.5     12.213     14.777
REMARK  0 active torsions:
REMARK  status: ('A' for Active; 'I' for Inactive)
ROOT
HETATM    1  C1  UNL     1      27.814   0.015  -0.295  1.00  0.00     0.247 C 
HETATM    2  O1  UNL     1      28.627   0.948  -0.059  1.00  0.00    -0.271 OA
HETATM    3  C2  UNL     1      27.620  -1.190   0.599  1.00  0.00     0.116 C 
HETATM    4  N1  UNL     1      26.189  -1.271   0.853  1.00  0.00    -0.332 N 
HETATM    5  C3  UNL     1      25.814  -1.091   2.237  1.00  0.00     0.127 C 
HETATM    6  C4  UNL     1      27.129  -0.784   2.960  1.00  0.00     0.023 C 
HETATM    7  C5  UNL     1      28.270  -1.129   1.986  1.00  0.00     0.043 C 
HETATM    8  C6  UNL     1      25.343  -1.237  -0.307  1.00  0.00     0.250 C 
HETATM    9  O2  UNL     1      24.085  -1.203  -0.228  1.00  0.00    -0.270 OA
HETATM   10  C7  UNL     1      27.998  -2.416  -0.279  1.00  0.00     0.050 C 
HETATM   11  C8  UNL     1      27.083  -2.454  -1.581  1.00  0.00     0.040 C 
HETATM   12  C9  UNL     1      26.125  -1.192  -1.604  1.00  0.00     0.122 C 
HETATM   13  N2  UNL     1      26.999  -0.004  -1.479  1.00  0.00    -0.340 N 
HETATM   14  C10 UNL     1      25.262  -1.100  -2.882  1.00  0.00     0.083 C 
HETATM   15  C11 UNL     1      24.773  -2.444  -3.311  1.00  0.00    -0.019 A 
HETATM   16  C12 UNL     1      25.324  -3.665  -2.942  1.00  0.00     0.025 A 
HETATM   17  N3  UNL     1      24.694  -4.680  -3.586  1.00  0.00    -0.358 N 
HETATM   18  C13 UNL     1      23.808  -2.733  -4.253  1.00  0.00    -0.000 A 
HETATM   19  C14 UNL     1      22.963  -1.903  -4.988  1.00  0.00     0.028 A 
HETATM   20  C15 UNL     1      23.783  -4.098  -4.386  1.00  0.00     0.046 A 
HETATM   21  C16 UNL     1      22.899  -4.731  -5.259  1.00  0.00     0.068 A 
HETATM   22  C17 UNL     1      22.036  -3.923  -6.020  1.00  0.00     0.082 A 
HETATM   23  O3  UNL     1      21.126  -4.508  -6.905  1.00  0.00    -0.336 OA
HETATM   24  C18 UNL     1      20.428  -3.767  -7.918  1.00  0.00     0.078 C 
HETATM   25  C19 UNL     1      19.029  -4.372  -8.078  1.00  0.00     0.051 C 
HETATM   26  C20 UNL     1      21.205  -3.892  -9.235  1.00  0.00     0.051 C 
HETATM   27  C21 UNL     1      20.302  -2.295  -7.558  1.00  0.00     0.011 C 
HETATM   28  C22 UNL     1      21.103  -1.716  -6.659  1.00  0.00     0.013 C 
HETATM   29  C23 UNL     1      22.063  -2.515  -5.884  1.00  0.00    -0.002 A 
HETATM   30  C24 UNL     1      26.362  -3.841  -1.850  1.00  0.00     0.002 C 
HETATM   31  C25 UNL     1      25.625  -4.434  -0.620  1.00  0.00     0.022 C 
HETATM   32  C26 UNL     1      27.422  -4.862  -2.320  1.00  0.00     0.022 C 
HETATM   33  H10 UNL     1      27.035   0.764  -2.186  1.00  0.00     0.163 HD
HETATM   34  H13 UNL     1      24.861  -5.705  -3.478  1.00  0.00     0.166 HD
ENDROOT
TORSDOF 0
ENDMDL
MODEL 19
REMARK VINA RESULT:      -8.5      4.707      9.641
REMARK  0 active torsions:
REMARK  status: ('A' for Active; 'I' for Inactive)
ROOT
HETATM    1  C1  UNL     1      19.756   4.292  -3.237  1.00  0.00     0.247 C 
HETATM    2  O1  UNL     1      20.481   3.322  -2.892  1.00  0.00    -0.271 OA
HETATM    3  C2  UNL     1      18.345   4.517  -2.738  1.00  0.00     0.116 C 
HETATM    4  N1  UNL     1      18.313   5.885  -2.242  1.00  0.00    -0.332 N 
HETATM    5  C3  UNL     1      18.057   6.003  -0.824  1.00  0.00     0.127 C 
HETATM    6  C4  UNL     1      17.990   4.559  -0.319  1.00  0.00     0.023 C 
HETATM    7  C5  UNL     1      17.886   3.652  -1.559  1.00  0.00     0.043 C 
HETATM    8  C6  UNL     1      18.803   6.891  -3.141  1.00  0.00     0.250 C 
HETATM    9  O2  UNL     1      18.921   8.101  -2.806  1.00  0.00    -0.270 OA
HETATM   10  C7  UNL     1      17.449   4.472  -4.008  1.00  0.00     0.050 C 
HETATM   11  C8  UNL     1      17.926   5.579  -5.048  1.00  0.00     0.040 C 
HETATM   12  C9  UNL     1      19.204   6.329  -4.489  1.00  0.00     0.122 C 
HETATM   13  N2  UNL     1      20.202   5.280  -4.182  1.00  0.00    -0.340 N 
HETATM   14  C10 UNL     1      19.790   7.362  -5.478  1.00  0.00     0.083 C 
HETATM   15  C11 UNL     1      18.712   8.109  -6.193  1.00  0.00    -0.019 A 
HETATM   16  C12 UNL     1      17.394   7.693  -6.337  1.00  0.00     0.025 A 
HETATM   17  N3  UNL     1      16.709   8.562  -7.123  1.00  0.00    -0.358 N 
HETATM   18  C13 UNL     1      18.838   9.244  -6.966  1.00  0.00    -0.000 A 
HETATM   19  C14 UNL     1      19.936  10.063  -7.225  1.00  0.00     0.028 A 
HETATM   20  C15 UNL     1      17.602   9.493  -7.506  1.00  0.00     0.046 A 
HETATM   21  C16 UNL     1      17.374  10.589  -8.336  1.00  0.00     0.068 A 
HETATM   22  C17 UNL     1      18.462  11.433  -8.622  1.00  0.00     0.082 A 
HETATM   23  O3  UNL     1      18.285  12.550  -9.445  1.00  0.00    -0.336 OA
HETATM   24  C18 UNL     1      19.379  13.282 -10.019  1.00  0.00     0.078 C 
HETATM   25  C19 UNL     1      18.988  14.763 -10.075  1.00  0.00     0.051 C 
HETATM   26  C20 UNL     1      19.628  12.754 -11.438  1.00  0.00     0.051 C 
HETATM   27  C21 UNL     1      20.653  13.129  -9.205  1.00  0.00     0.011 C 
HETATM   28  C22 UNL     1      20.830  12.117  -8.351  1.00  0.00     0.013 C 
HETATM   29  C23 UNL     1      19.738  11.176  -8.068  1.00  0.00    -0.002 A 
HETATM   30  C24 UNL     1      16.775   6.531  -5.582  1.00  0.00     0.002 C 
HETATM   31  C25 UNL     1      15.878   7.142  -4.474  1.00  0.00     0.022 C 
HETATM   32  C26 UNL     1      15.878   5.724  -6.546  1.00  0.00     0.022 C 
HETATM   33  H10 UNL     1      21.154   5.243  -4.609  1.00  0.00     0.163 HD
HETATM   34  H13 UNL     1      15.695   8.534  -7.372  1.00  0.00     0.166 HD
ENDROOT
TORSDOF 0
ENDMDL
MODEL 20
REMARK VINA RESULT:      -8.2      6.814     10.093
REMARK  0 active torsions:
REMARK  status: ('A' for Active; 'I' for Inactive)
ROOT
HETATM    1  C1  UNL     1      21.004   7.895  -2.897  1.00  0.00     0.247 C 
HETATM    2  O1  UNL     1      21.523   7.656  -1.774  1.00  0.00    -0.271 OA
HETATM    3  C2  UNL     1      21.128   9.215  -3.626  1.00  0.00     0.116 C 
HETATM    4  N1  UNL     1      21.598   8.887  -4.964  1.00  0.00    -0.332 N 
HETATM    5  C3  UNL     1      22.904   9.415  -5.287  1.00  0.00     0.127 C 
HETATM    6  C4  UNL     1      23.378  10.098  -4.000  1.00  0.00     0.023 C 
HETATM    7  C5  UNL     1      22.153  10.213  -3.074  1.00  0.00     0.043 C 
HETATM    8  C6  UNL     1      20.852   7.880  -5.662  1.00  0.00     0.250 C 
HETATM    9  O2  UNL     1      21.204   7.431  -6.787  1.00  0.00    -0.270 OA
HETATM   10  C7  UNL     1      19.672   9.741  -3.771  1.00  0.00     0.050 C 
HETATM   11  C8  UNL     1      18.786   8.677  -4.556  1.00  0.00     0.040 C 
HETATM   12  C9  UNL     1      19.650   7.390  -4.880  1.00  0.00     0.122 C 
HETATM   13  N2  UNL     1      20.203   6.923  -3.589  1.00  0.00    -0.340 N 
HETATM   14  C10 UNL     1      18.842   6.265  -5.564  1.00  0.00     0.083 C 
HETATM   15  C11 UNL     1      17.875   6.813  -6.562  1.00  0.00    -0.019 A 
HETATM   16  C12 UNL     1      17.402   8.119  -6.602  1.00  0.00     0.025 A 
HETATM   17  N3  UNL     1      16.467   8.251  -7.576  1.00  0.00    -0.358 N 
HETATM   18  C13 UNL     1      17.159   6.120  -7.514  1.00  0.00    -0.000 A 
HETATM   19  C14 UNL     1      17.186   4.778  -7.891  1.00  0.00     0.028 A 
HETATM   20  C15 UNL     1      16.322   7.027  -8.115  1.00  0.00     0.046 A 
HETATM   21  C16 UNL     1      15.459   6.656  -9.145  1.00  0.00     0.068 A 
HETATM   22  C17 UNL     1      15.458   5.307  -9.546  1.00  0.00     0.082 A 
HETATM   23  O3  UNL     1      14.616   4.884 -10.579  1.00  0.00    -0.336 OA
HETATM   24  C18 UNL     1      14.338   3.501 -10.847  1.00  0.00     0.078 C 
HETATM   25  C19 UNL     1      14.182   3.328 -12.362  1.00  0.00     0.051 C 
HETATM   26  C20 UNL     1      13.030   3.121 -10.141  1.00  0.00     0.051 C 
HETATM   27  C21 UNL     1      15.449   2.592 -10.348  1.00  0.00     0.011 C 
HETATM   28  C22 UNL     1      16.322   2.987  -9.416  1.00  0.00     0.013 C 
HETATM   29  C23 UNL     1      16.319   4.371  -8.926  1.00  0.00    -0.002 A 
HETATM   30  C24 UNL     1      17.976   9.263  -5.788  1.00  0.00     0.002 C 
HETATM   31  C25 UNL     1      18.819  10.129  -6.760  1.00  0.00     0.022 C 
HETATM   32  C26 UNL     1      16.817  10.129  -5.246  1.00  0.00     0.022 C 
HETATM   33  H10 UNL     1      20.031   5.970  -3.196  1.00  0.00     0.163 HD
HETATM   34  H13 UNL     1      15.968   9.121  -7.868  1.00  0.00     0.166 HD
ENDROOT
TORSDOF 0
ENDMDL
